============================== echo of input deck ==============================
echo
start adamant
geometry  units angstroms noautosym  noautoz
C         -0.19305        1.82219       -0.88212
C          0.69674        0.94007        0.00000
C         -0.19305        0.05795        0.88212
H          1.35905        0.32766       -0.61241
H          1.35905        1.55248        0.61241
C         -1.07517        0.94007        1.77192
C         -1.95729        1.82219        0.88212
H         -1.68758        0.32766        2.43422
H         -0.46276        1.55248        2.43422
C         -1.07517        2.71199        0.00000
H         -1.68758        3.37430       -0.61241
H         -0.46276        3.37430        0.61241
C         -1.07517        0.94007       -1.77192
H          0.43561        2.45085       -1.51078
C         -1.07517       -0.83185        0.00000
H          0.43561       -0.57071        1.51078
C         -1.95729        0.05795       -0.88212
H         -0.46276       -1.49415       -0.61241
H         -1.68758       -1.49415        0.61241
H         -2.58595       -0.57071       -1.51078
C         -2.84709        0.94007        0.00000
H         -1.68758        1.55248       -2.43422
H         -0.46276        0.32766       -2.43422
H         -3.50940        1.55248       -0.61241
H         -2.58595        2.45085        1.51078
H         -3.50940        0.32766        0.61241
 symmetry c1
end

basis
 *  library 6-31G
end

dft
 xc b3lyp
 mult 1
end

tddft
 cis
 nroots 40
 singlet
 notriplet
 civecs
end

task tddft energy

dplot
 civecs adamant.civecs_singlet
 root 1
 LimitXYZ
  -5.0 5.0 50
  -5.0 5.0 50
  -5.0 5.0 50
   gaussian
   output root-1.cube
end
task dplot

================================================================================

 Output coordinates in angstroms (scale by  1.889725989 to convert to a.u.)

  No.       Tag          Charge          X              Y              Z
 ---- ---------------- ---------- -------------- -------------- --------------
    1 C                    6.0000     0.88212105     0.88211974    -0.88212000
    2 C                    6.0000     1.77191105    -0.00000026    -0.00000000
    3 C                    6.0000     0.88212105    -0.88212026     0.88212000
    4 H                    1.0000     2.43422105    -0.61241026    -0.61241000
    5 H                    1.0000     2.43422105     0.61240974     0.61241000
    6 C                    6.0000     0.00000105    -0.00000026     1.77192000
    7 C                    6.0000    -0.88211895     0.88211974     0.88212000
    8 H                    1.0000    -0.61240895    -0.61241026     2.43422000
    9 H                    1.0000     0.61241105     0.61240974     2.43422000
   10 C                    6.0000     0.00000105     1.77191974    -0.00000000
   11 H                    1.0000    -0.61240895     2.43422974    -0.61241000
   12 H                    1.0000     0.61241105     2.43422974     0.61241000
   13 C                    6.0000     0.00000105    -0.00000026    -1.77192000
   14 H                    1.0000     1.51078105     1.51077974    -1.51078000
   15 C                    6.0000     0.00000105    -1.77192026    -0.00000000
   16 H                    1.0000     1.51078105    -1.51078026     1.51078000
   17 C                    6.0000    -0.88211895    -0.88212026    -0.88212000
   18 H                    1.0000     0.61241105    -2.43422026    -0.61241000
   19 H                    1.0000    -0.61240895    -2.43422026     0.61241000
   20 H                    1.0000    -1.51077895    -1.51078026    -1.51078000
   21 C                    6.0000    -1.77191895    -0.00000026    -0.00000000
   22 H                    1.0000    -0.61240895     0.61240974    -2.43422000
   23 H                    1.0000     0.61241105    -0.61241026    -2.43422000
   24 H                    1.0000    -2.43422895     0.61240974    -0.61241000
   25 H                    1.0000    -1.51077895     1.51077974     1.51078000
   26 H                    1.0000    -2.43422895    -0.61241026     0.61241000

         Total DFT energy =     -390.623511305981

                       DFT Final Molecular Orbital Analysis
                       ------------------------------------

 Vector    1  Occ=2.000000D+00  E=-1.017030D+01

 Vector   43  Occ=0.000000D+00  E= 1.385929D-01

 Vector   44  Occ=0.000000D+00  E= 1.385933D-01

 Vector   45  Occ=0.000000D+00  E= 1.385936D-01

 Vector   46  Occ=0.000000D+00  E= 1.561828D-01

 Vector   47  Occ=0.000000D+00  E= 1.712361D-01

 Vector   48  Occ=0.000000D+00  E= 1.712366D-01

 Vector   49  Occ=0.000000D+00  E= 1.999188D-01

 Vector   50  Occ=0.000000D+00  E= 1.999190D-01

 Vector   51  Occ=0.000000D+00  E= 1.999193D-01

 Vector   52  Occ=0.000000D+00  E= 2.108475D-01

 Vector   53  Occ=0.000000D+00  E= 2.108483D-01

 Vector   54  Occ=0.000000D+00  E= 2.108489D-01

 Vector   55  Occ=0.000000D+00  E= 2.393618D-01

 Vector   56  Occ=0.000000D+00  E= 2.393624D-01

 Vector   57  Occ=0.000000D+00  E= 2.393626D-01

 Vector   58  Occ=0.000000D+00  E= 2.436276D-01

 Vector   59  Occ=0.000000D+00  E= 2.436280D-01

 Vector   60  Occ=0.000000D+00  E= 2.827434D-01

 Vector   61  Occ=0.000000D+00  E= 2.883286D-01

 Vector   62  Occ=0.000000D+00  E= 2.883292D-01

 Vector   63  Occ=0.000000D+00  E= 2.883292D-01

 Vector   64  Occ=0.000000D+00  E= 3.152481D-01

 Vector   65  Occ=0.000000D+00  E= 3.152484D-01

 Vector   66  Occ=0.000000D+00  E= 3.152500D-01

 Vector   67  Occ=0.000000D+00  E= 5.719866D-01

 Vector   68  Occ=0.000000D+00  E= 5.719878D-01

 Vector   69  Occ=0.000000D+00  E= 5.719880D-01

 Vector   70  Occ=0.000000D+00  E= 5.735031D-01

 Vector   71  Occ=0.000000D+00  E= 5.735047D-01

 Vector   72  Occ=0.000000D+00  E= 5.735048D-01

 Vector   73  Occ=0.000000D+00  E= 6.297738D-01

 Vector   74  Occ=0.000000D+00  E= 6.446251D-01

 Vector   75  Occ=0.000000D+00  E= 6.446258D-01

 Vector   76  Occ=0.000000D+00  E= 6.446259D-01

 Vector   77  Occ=0.000000D+00  E= 6.855875D-01

 Vector   78  Occ=0.000000D+00  E= 6.855881D-01

 Vector   79  Occ=0.000000D+00  E= 6.932940D-01

 Vector   80  Occ=0.000000D+00  E= 7.223271D-01

 Vector   81  Occ=0.000000D+00  E= 7.223302D-01

 Vector   82  Occ=0.000000D+00  E= 7.471237D-01

 Vector   83  Occ=0.000000D+00  E= 7.471238D-01

 Vector   84  Occ=0.000000D+00  E= 7.471242D-01

 Vector   85  Occ=0.000000D+00  E= 7.944701D-01

 Vector   86  Occ=0.000000D+00  E= 7.944704D-01

 Vector   87  Occ=0.000000D+00  E= 7.944713D-01

 Vector   88  Occ=0.000000D+00  E= 8.203262D-01

 Vector   89  Occ=0.000000D+00  E= 8.203269D-01

 Vector   90  Occ=0.000000D+00  E= 8.203278D-01

 Vector   91  Occ=0.000000D+00  E= 9.006354D-01

 Vector   92  Occ=0.000000D+00  E= 9.177665D-01

 Vector   93  Occ=0.000000D+00  E= 9.177681D-01

 Vector   94  Occ=0.000000D+00  E= 9.177697D-01

 Vector   95  Occ=0.000000D+00  E= 9.187006D-01

 Vector   96  Occ=0.000000D+00  E= 9.187008D-01

 Vector   97  Occ=0.000000D+00  E= 9.187012D-01

 Vector   98  Occ=0.000000D+00  E= 9.527085D-01

 Vector   99  Occ=0.000000D+00  E= 9.847581D-01

 Vector  100  Occ=0.000000D+00  E= 9.847607D-01

 Vector  101  Occ=0.000000D+00  E= 9.847632D-01

 Vector  102  Occ=0.000000D+00  E= 1.012705D+00

 Vector  103  Occ=0.000000D+00  E= 1.012708D+00

 Vector  104  Occ=0.000000D+00  E= 1.033047D+00

 Vector  105  Occ=0.000000D+00  E= 1.131136D+00

 Vector  106  Occ=0.000000D+00  E= 1.131139D+00

 Vector  107  Occ=0.000000D+00  E= 1.131142D+00

 Vector  108  Occ=0.000000D+00  E= 1.240248D+00

 Vector  109  Occ=0.000000D+00  E= 1.240249D+00

 Vector  110  Occ=0.000000D+00  E= 1.240250D+00

 Vector  111  Occ=0.000000D+00  E= 1.333621D+00

 Vector  112  Occ=0.000000D+00  E= 1.333624D+00

 Vector  113  Occ=0.000000D+00  E= 1.333627D+00

 Vector  114  Occ=0.000000D+00  E= 1.470729D+00

 Vector  115  Occ=0.000000D+00  E= 1.470731D+00

 Vector  116  Occ=0.000000D+00  E= 1.470734D+00

 Vector  117  Occ=0.000000D+00  E= 1.533423D+00

 Vector  118  Occ=0.000000D+00  E= 1.823855D+00

 Vector  119  Occ=0.000000D+00  E= 1.823857D+00

 Vector  120  Occ=0.000000D+00  E= 2.136332D+00

 Vector  121  Occ=0.000000D+00  E= 2.136334D+00

 Vector  122  Occ=0.000000D+00  E= 2.136335D+00

     Multipole analysis of the density
     ---------------------------------

     L   x y z        total         alpha         beta         nuclear
     -   - - -        -----         -----         ----         -------
     0   0 0 0     -0.000000    -38.000000    -38.000000     76.000000

     1   1 0 0     -0.000000     -0.000000     -0.000000      0.000000
     1   0 1 0     -0.000002     -0.000001     -0.000001     -0.000000
     1   0 0 1     -0.000000     -0.000000     -0.000000      0.000000

     2   2 0 0    -47.064695   -188.128858   -188.128858    329.193022
     2   1 1 0      0.000000      0.000000      0.000000      0.000000
     2   1 0 1     -0.000009     -0.000004     -0.000004      0.000000
     2   0 2 0    -47.064673   -188.129227   -188.129227    329.193781
     2   0 1 1     -0.000008     -0.000004     -0.000004      0.000000

  Root   1 singlet a              0.312011335 a.u.                8.4903 eV
     Dipole Oscillator Strength                    0.0034354318
  Root   2 singlet a              0.312011507 a.u.                8.4903 eV
     Dipole Oscillator Strength                    0.0034353543
  Root   3 singlet a              0.312012378 a.u.                8.4903 eV
     Dipole Oscillator Strength                    0.0034354403
  Root   4 singlet a              0.354391885 a.u.                9.6435 eV
     Dipole Oscillator Strength                    0.0000000000
  Root   5 singlet a              0.354392741 a.u.                9.6435 eV
     Dipole Oscillator Strength                    0.0000000000
  Root   6 singlet a              0.354393092 a.u.                9.6435 eV
     Dipole Oscillator Strength                    0.0000000000
  Root   7 singlet a              0.361493865 a.u.                9.8368 eV
     Dipole Oscillator Strength                    0.0000000001
  Root   8 singlet a              0.361494111 a.u.                9.8368 eV
     Dipole Oscillator Strength                    0.0000000000
  Root   9 singlet a              0.366485105 a.u.                9.9726 eV
     Dipole Oscillator Strength                    0.0000000000
  Root  10 singlet a              0.366485659 a.u.                9.9726 eV
     Dipole Oscillator Strength                    0.0000000001
  Root  11 singlet a              0.366485955 a.u.                9.9726 eV
     Dipole Oscillator Strength                    0.0000000004
  Root  12 singlet a              0.368802717 a.u.               10.0356 eV
     Dipole Oscillator Strength                    0.0000000011
  Root  13 singlet a              0.368802968 a.u.               10.0356 eV
     Dipole Oscillator Strength                    0.0000000004
  Root  14 singlet a              0.372523052 a.u.               10.1369 eV
     Dipole Oscillator Strength                    0.2130009740
  Root  15 singlet a              0.372523721 a.u.               10.1369 eV
     Dipole Oscillator Strength                    0.2130008820
  Root  16 singlet a              0.372523779 a.u.               10.1369 eV
     Dipole Oscillator Strength                    0.2130056075
  Root  17 singlet a              0.373560468 a.u.               10.1651 eV
     Dipole Oscillator Strength                    0.0000000346
  Root  18 singlet a              0.376088107 a.u.               10.2339 eV
     Dipole Oscillator Strength                    0.0416068737
  Root  19 singlet a              0.376088618 a.u.               10.2339 eV
     Dipole Oscillator Strength                    0.0415998606
  Root  20 singlet a              0.376089000 a.u.               10.2339 eV
     Dipole Oscillator Strength                    0.0416120026
  Root  21 singlet a              0.376154901 a.u.               10.2357 eV
     Dipole Oscillator Strength                    0.0000000392
  Root  22 singlet a              0.376155391 a.u.               10.2357 eV
     Dipole Oscillator Strength                    0.0000001811
  Root  23 singlet a              0.376155547 a.u.               10.2357 eV
     Dipole Oscillator Strength                    0.0000004120
  Root  24 singlet a              0.377314552 a.u.               10.2673 eV
     Dipole Oscillator Strength                    0.0000000029
  Root  25 singlet a              0.377314821 a.u.               10.2673 eV
     Dipole Oscillator Strength                    0.0000000008
  Root  26 singlet a              0.379229966 a.u.               10.3194 eV
     Dipole Oscillator Strength                    0.0000000040
  Root  27 singlet a              0.392928987 a.u.               10.6921 eV
     Dipole Oscillator Strength                    0.0787991747
  Root  28 singlet a              0.392929158 a.u.               10.6922 eV
     Dipole Oscillator Strength                    0.0787971528
  Root  29 singlet a              0.392929915 a.u.               10.6922 eV
     Dipole Oscillator Strength                    0.0787922846
  Root  30 singlet a              0.404338953 a.u.               11.0026 eV
     Dipole Oscillator Strength                    0.0000000003
  Root  31 singlet a              0.404339092 a.u.               11.0026 eV
     Dipole Oscillator Strength                    0.0000000001
  Root  32 singlet a              0.404339643 a.u.               11.0026 eV
     Dipole Oscillator Strength                    0.0000000001
  Root  33 singlet a              0.407504691 a.u.               11.0888 eV
     Dipole Oscillator Strength                    0.0054546871
  Root  34 singlet a              0.407505038 a.u.               11.0888 eV
     Dipole Oscillator Strength                    0.0054555546
  Root  35 singlet a              0.407505528 a.u.               11.0888 eV
     Dipole Oscillator Strength                    0.0054543660
  Root  36 singlet a              0.409263364 a.u.               11.1366 eV
     Dipole Oscillator Strength                    0.0000000000
  Root  37 singlet a              0.412426828 a.u.               11.2227 eV
     Dipole Oscillator Strength                    0.0000000004
  Root  38 singlet a              0.412427028 a.u.               11.2227 eV
     Dipole Oscillator Strength                    0.0000000006
  Root  39 singlet a              0.412427270 a.u.               11.2227 eV
     Dipole Oscillator Strength                    0.0000000001
  Root  40 singlet a              0.414165852 a.u.               11.2700 eV
     Dipole Oscillator Strength                    0.0000000069
 Total times  cpu:      114.1s     wall:      114.1s
