============================== echo of input deck ==============================
echo

title "optimization of LiF"

start LiF

#============= Define the basis ================
basis
 * library 6-311++G**
end

#============= Define the method ===============
# as singlet
scf
 rhf
 singlet
 thresh 1e-8
end

driver
 tight
 xyz
end

freq
 animate
end

#============ Now do the geometry scan ===========

geometry units angstrom
Li        0.0000000000      0.0000000000      0.00066850000
F        0.0000000000      0.0000000000       1.50066850000
symmetry c1
end

task scf optimize
task scf frequencies

================================================================================

         Total SCF energy =   -106.973336367804
@ Step       Energy      Delta E   Gmax     Grms     Xrms     Xmax   Walltime
@ ---- ---------------- -------- -------- -------- -------- -------- --------
@    0    -106.97333637  0.0D+00  0.02905  0.02905  0.00000  0.00000      0.9
         Total SCF energy =   -106.974390738233
         Total SCF energy =   -106.975253101388
@    1    -106.97525310 -1.9D-03  0.00329  0.00329  0.03576  0.06195      1.6
         Total SCF energy =   -106.975283464297
         Total SCF energy =   -106.975284425686

 Vector    6  Occ=2.000000D+00  E=-4.756754D-01

 Vector    7  Occ=0.000000D+00  E=-1.109961D-02

 Vector    8  Occ=0.000000D+00  E= 1.545922D-02

 Vector    9  Occ=0.000000D+00  E= 1.545922D-02

 Vector   10  Occ=0.000000D+00  E= 2.024073D-02

 Vector   11  Occ=0.000000D+00  E= 2.837883D-02

 Vector   12  Occ=0.000000D+00  E= 6.195061D-02

 Vector   13  Occ=0.000000D+00  E= 6.195061D-02

 Vector   14  Occ=0.000000D+00  E= 9.205752D-02

 Vector   15  Occ=0.000000D+00  E= 1.405705D-01

 Vector   16  Occ=0.000000D+00  E= 1.757192D-01

 Vector   17  Occ=0.000000D+00  E= 1.757192D-01

 Vector   18  Occ=0.000000D+00  E= 2.184658D-01

 Vector   19  Occ=0.000000D+00  E= 4.107866D-01

 Vector   20  Occ=0.000000D+00  E= 4.107866D-01

 Vector   21  Occ=0.000000D+00  E= 4.187471D-01

 Vector   22  Occ=0.000000D+00  E= 5.776025D-01

@    2    -106.97528443 -3.1D-05  0.00004  0.00004  0.00548  0.00950      2.3
         Total SCF energy =   -106.975284429780

 Vector    2  Occ=2.000000D+00  E=-2.444333D+00

 Vector    3  Occ=2.000000D+00  E=-1.378682D+00

 Vector    4  Occ=2.000000D+00  E=-4.987799D-01

 Vector    5  Occ=2.000000D+00  E=-4.756630D-01

 Vector    6  Occ=2.000000D+00  E=-4.756630D-01

 Vector    7  Occ=0.000000D+00  E=-1.110239D-02

 Vector    8  Occ=0.000000D+00  E= 1.545895D-02

 Vector    9  Occ=0.000000D+00  E= 1.545895D-02

 Vector   10  Occ=0.000000D+00  E= 2.023923D-02

 Vector   11  Occ=0.000000D+00  E= 2.837927D-02

 Vector   12  Occ=0.000000D+00  E= 6.194827D-02

 Vector   13  Occ=0.000000D+00  E= 6.194827D-02

 Vector   14  Occ=0.000000D+00  E= 9.205738D-02

 Vector   15  Occ=0.000000D+00  E= 1.405676D-01

 Vector   16  Occ=0.000000D+00  E= 1.757138D-01

 Vector   17  Occ=0.000000D+00  E= 1.757138D-01

 Vector   18  Occ=0.000000D+00  E= 2.184657D-01

 Vector   19  Occ=0.000000D+00  E= 4.107865D-01

 Vector   20  Occ=0.000000D+00  E= 4.107865D-01

 Vector   21  Occ=0.000000D+00  E= 4.187490D-01

 Vector   22  Occ=0.000000D+00  E= 5.775844D-01

         Total SCF energy =   -106.975284429780
@    3    -106.97528443 -4.1D-09  0.00000  0.00000  0.00006  0.00011      2.8
         Total SCF energy =   -106.975284429792

 Vector    2  Occ=2.000000D+00  E=-2.444333D+00

 Vector    3  Occ=2.000000D+00  E=-1.378681D+00

 Vector    4  Occ=2.000000D+00  E=-4.987795D-01

 Vector    5  Occ=2.000000D+00  E=-4.756627D-01

 Vector    6  Occ=2.000000D+00  E=-4.756627D-01

 Vector    7  Occ=0.000000D+00  E=-1.110246D-02

 Vector    8  Occ=0.000000D+00  E= 1.545894D-02

 Vector    9  Occ=0.000000D+00  E= 1.545894D-02

 Vector   10  Occ=0.000000D+00  E= 2.023919D-02

 Vector   11  Occ=0.000000D+00  E= 2.837928D-02

 Vector   12  Occ=0.000000D+00  E= 6.194821D-02

 Vector   13  Occ=0.000000D+00  E= 6.194821D-02

 Vector   14  Occ=0.000000D+00  E= 9.205737D-02

 Vector   15  Occ=0.000000D+00  E= 1.405675D-01

 Vector   16  Occ=0.000000D+00  E= 1.757137D-01

 Vector   17  Occ=0.000000D+00  E= 1.757137D-01

 Vector   18  Occ=0.000000D+00  E= 2.184657D-01

 Vector   19  Occ=0.000000D+00  E= 4.107865D-01

 Vector   20  Occ=0.000000D+00  E= 4.107865D-01

 Vector   21  Occ=0.000000D+00  E= 4.187491D-01

 Vector   22  Occ=0.000000D+00  E= 5.775840D-01

         Total SCF energy =   -106.975284429792
@    4    -106.97528443 -1.1D-11  0.00000  0.00000  0.00000  0.00000      3.3
@    4    -106.97528443 -1.1D-11  0.00000  0.00000  0.00000  0.00000      3.3

 Output coordinates in angstroms (scale by  1.889725989 to convert to a.u.)

  No.       Tag          Charge          X              Y              Z
 ---- ---------------- ---------- -------------- -------------- --------------
    1 Li                   3.0000     0.00000000     0.00000000    -1.16286462
    2 F                    9.0000     0.00000000     0.00000000     0.41286462

         Total SCF energy =   -106.975284429792

 Vector    2  Occ=2.000000D+00  E=-2.444333D+00

 Vector    3  Occ=2.000000D+00  E=-1.378681D+00

 Vector    4  Occ=2.000000D+00  E=-4.987795D-01

 Vector    5  Occ=2.000000D+00  E=-4.756627D-01

 Vector    6  Occ=2.000000D+00  E=-4.756627D-01

 Vector    7  Occ=0.000000D+00  E=-1.110246D-02

 Vector    8  Occ=0.000000D+00  E= 1.545894D-02

 Vector    9  Occ=0.000000D+00  E= 1.545894D-02

 Vector   10  Occ=0.000000D+00  E= 2.023919D-02

 Vector   11  Occ=0.000000D+00  E= 2.837928D-02

 Vector   12  Occ=0.000000D+00  E= 6.194821D-02

 Vector   13  Occ=0.000000D+00  E= 6.194821D-02

 Vector   14  Occ=0.000000D+00  E= 9.205737D-02

 Vector   15  Occ=0.000000D+00  E= 1.405675D-01

 Vector   16  Occ=0.000000D+00  E= 1.757137D-01

 Vector   17  Occ=0.000000D+00  E= 1.757137D-01

 Vector   18  Occ=0.000000D+00  E= 2.184657D-01

 Vector   19  Occ=0.000000D+00  E= 4.107865D-01

 Vector   20  Occ=0.000000D+00  E= 4.107865D-01

 Vector   21  Occ=0.000000D+00  E= 4.187491D-01

 Vector   22  Occ=0.000000D+00  E= 5.775840D-01

       Multipole analysis of the density wrt the origin
       ------------------------------------------------

     L   x y z        total         open         nuclear
     -   - - -        -----         ----         -------
     0   0 0 0     -0.000000      0.000000     12.000000

     1   1 0 0     -0.000000      0.000000      0.000000
     1   0 1 0     -0.000000      0.000000      0.000000
     1   0 0 1     -2.616988      0.000000      0.429322

     2   2 0 0     -5.242405      0.000000      0.000000
     2   1 1 0     -0.000000      0.000000      0.000000
     2   1 0 1      0.000000      0.000000      0.000000
     2   0 2 0     -5.242405      0.000000      0.000000
     2   0 1 1      0.000000      0.000000      0.000000

 Zero-Point correction to Energy  =    1.325 kcal/mol  (  0.002112 au)
 Thermal correction to Energy     =    2.836 kcal/mol  (  0.004520 au)
 Thermal correction to Enthalpy   =    3.428 kcal/mol  (  0.005464 au)
 Total Entropy                    =   47.835 cal/mol-K
   - Translational                =   35.688 cal/mol-K (mol. weight =  26.0144)
   - Rotational                   =   12.022 cal/mol-K (symmetry #  =        1)
   - Vibrational                  =    0.125 cal/mol-K
   - Translational                  =    2.979 cal/mol-K
   - Rotational                     =    1.986 cal/mol-K
   - Vibrational                    =    0.463 cal/mol-K
 P.Frequency        0.00        0.00        0.00        0.00        0.00      927.45

 Normal Eigenvalue ||           Projected Infra Red Intensities
  Mode   [cm**-1]  || [atomic units] [(debye/angs)**2] [(KM/mol)] [arbitrary]
 ------ ---------- || -------------- ----------------- ---------- -----------
    1        0.000 ||    0.110089           2.540       107.320      13.820
    2        0.000 ||    0.110089           2.540       107.320      13.820
    3        0.000 ||    0.040655           0.938        39.633       5.104
    4        0.000 ||    0.040655           0.938        39.633       5.104
    5        0.000 ||    0.000000           0.000         0.000       0.000
    6      927.446 ||    0.176468           4.071       172.030      22.153
 ----------------------------------------------------------------------------

 Total times  cpu:        6.7s     wall:        6.7s
