============================== echo of input deck ==============================
echo
start adamant
geometry  units angstroms noautosym  noautoz
C         -0.19305        1.82219       -0.88212
C          0.69674        0.94007        0.00000
C         -0.19305        0.05795        0.88212
H          1.35905        0.32766       -0.61241
H          1.35905        1.55248        0.61241
C         -1.07517        0.94007        1.77192
C         -1.95729        1.82219        0.88212
H         -1.68758        0.32766        2.43422
H         -0.46276        1.55248        2.43422
C         -1.07517        2.71199        0.00000
H         -1.68758        3.37430       -0.61241
H         -0.46276        3.37430        0.61241
C         -1.07517        0.94007       -1.77192
H          0.43561        2.45085       -1.51078
C         -1.07517       -0.83185        0.00000
H          0.43561       -0.57071        1.51078
C         -1.95729        0.05795       -0.88212
H         -0.46276       -1.49415       -0.61241
H         -1.68758       -1.49415        0.61241
H         -2.58595       -0.57071       -1.51078
C         -2.84709        0.94007        0.00000
H         -1.68758        1.55248       -2.43422
H         -0.46276        0.32766       -2.43422
H         -3.50940        1.55248       -0.61241
H         -2.58595        2.45085        1.51078
H         -3.50940        0.32766        0.61241
 symmetry c1
end

basis
 *  library 6-31G
end

dft
 xc hfexch
 mult 1
end

tddft
 cis
 nroots 40
 singlet
 notriplet
 civecs
end

task tddft energy

dplot
 civecs adamant.civecs_singlet
 root 1
 LimitXYZ
  -5.0 5.0 50
  -5.0 5.0 50
  -5.0 5.0 50
   gaussian
   output root-1.cube
end
task dplot

================================================================================

 Output coordinates in angstroms (scale by  1.889725989 to convert to a.u.)

  No.       Tag          Charge          X              Y              Z
 ---- ---------------- ---------- -------------- -------------- --------------
    1 C                    6.0000     0.88212105     0.88211974    -0.88212000
    2 C                    6.0000     1.77191105    -0.00000026    -0.00000000
    3 C                    6.0000     0.88212105    -0.88212026     0.88212000
    4 H                    1.0000     2.43422105    -0.61241026    -0.61241000
    5 H                    1.0000     2.43422105     0.61240974     0.61241000
    6 C                    6.0000     0.00000105    -0.00000026     1.77192000
    7 C                    6.0000    -0.88211895     0.88211974     0.88212000
    8 H                    1.0000    -0.61240895    -0.61241026     2.43422000
    9 H                    1.0000     0.61241105     0.61240974     2.43422000
   10 C                    6.0000     0.00000105     1.77191974    -0.00000000
   11 H                    1.0000    -0.61240895     2.43422974    -0.61241000
   12 H                    1.0000     0.61241105     2.43422974     0.61241000
   13 C                    6.0000     0.00000105    -0.00000026    -1.77192000
   14 H                    1.0000     1.51078105     1.51077974    -1.51078000
   15 C                    6.0000     0.00000105    -1.77192026    -0.00000000
   16 H                    1.0000     1.51078105    -1.51078026     1.51078000
   17 C                    6.0000    -0.88211895    -0.88212026    -0.88212000
   18 H                    1.0000     0.61241105    -2.43422026    -0.61241000
   19 H                    1.0000    -0.61240895    -2.43422026     0.61241000
   20 H                    1.0000    -1.51077895    -1.51078026    -1.51078000
   21 C                    6.0000    -1.77191895    -0.00000026    -0.00000000
   22 H                    1.0000    -0.61240895     0.61240974    -2.43422000
   23 H                    1.0000     0.61241105    -0.61241026    -2.43422000
   24 H                    1.0000    -2.43422895     0.61240974    -0.61241000
   25 H                    1.0000    -1.51077895     1.51077974     1.51078000
   26 H                    1.0000    -2.43422895    -0.61241026     0.61241000

         Total DFT energy =     -387.863387992375

                       DFT Final Molecular Orbital Analysis
                       ------------------------------------

 Vector    1  Occ=2.000000D+00  E=-1.121768D+01

 Vector   43  Occ=0.000000D+00  E= 2.819405D-01

 Vector   44  Occ=0.000000D+00  E= 2.819409D-01

 Vector   45  Occ=0.000000D+00  E= 2.819412D-01

 Vector   46  Occ=0.000000D+00  E= 2.975981D-01

 Vector   47  Occ=0.000000D+00  E= 3.203292D-01

 Vector   48  Occ=0.000000D+00  E= 3.203296D-01

 Vector   49  Occ=0.000000D+00  E= 3.506535D-01

 Vector   50  Occ=0.000000D+00  E= 3.506536D-01

 Vector   51  Occ=0.000000D+00  E= 3.506540D-01

 Vector   52  Occ=0.000000D+00  E= 3.685294D-01

 Vector   53  Occ=0.000000D+00  E= 3.685301D-01

 Vector   54  Occ=0.000000D+00  E= 3.685306D-01

 Vector   55  Occ=0.000000D+00  E= 4.044352D-01

 Vector   56  Occ=0.000000D+00  E= 4.044358D-01

 Vector   57  Occ=0.000000D+00  E= 4.044359D-01

 Vector   58  Occ=0.000000D+00  E= 4.140707D-01

 Vector   59  Occ=0.000000D+00  E= 4.140711D-01

 Vector   60  Occ=0.000000D+00  E= 4.493495D-01

 Vector   61  Occ=0.000000D+00  E= 4.633338D-01

 Vector   62  Occ=0.000000D+00  E= 4.633344D-01

 Vector   63  Occ=0.000000D+00  E= 4.633345D-01

 Vector   64  Occ=0.000000D+00  E= 4.980362D-01

 Vector   65  Occ=0.000000D+00  E= 4.980366D-01

 Vector   66  Occ=0.000000D+00  E= 4.980382D-01

 Vector   67  Occ=0.000000D+00  E= 7.831155D-01

 Vector   68  Occ=0.000000D+00  E= 7.831175D-01

 Vector   69  Occ=0.000000D+00  E= 7.831176D-01

 Vector   70  Occ=0.000000D+00  E= 7.866508D-01

 Vector   71  Occ=0.000000D+00  E= 7.866517D-01

 Vector   72  Occ=0.000000D+00  E= 7.866526D-01

 Vector   73  Occ=0.000000D+00  E= 8.472807D-01

 Vector   74  Occ=0.000000D+00  E= 9.138221D-01

 Vector   75  Occ=0.000000D+00  E= 9.138232D-01

 Vector   76  Occ=0.000000D+00  E= 9.138235D-01

 Vector   77  Occ=0.000000D+00  E= 9.338119D-01

 Vector   78  Occ=0.000000D+00  E= 9.338151D-01

 Vector   79  Occ=0.000000D+00  E= 9.611576D-01

 Vector   80  Occ=0.000000D+00  E= 9.611584D-01

 Vector   81  Occ=0.000000D+00  E= 9.704441D-01

 Vector   82  Occ=0.000000D+00  E= 1.027945D+00

 Vector   83  Occ=0.000000D+00  E= 1.027945D+00

 Vector   84  Occ=0.000000D+00  E= 1.027945D+00

 Vector   85  Occ=0.000000D+00  E= 1.075283D+00

 Vector   86  Occ=0.000000D+00  E= 1.075284D+00

 Vector   87  Occ=0.000000D+00  E= 1.075285D+00

 Vector   88  Occ=0.000000D+00  E= 1.077064D+00

 Vector   89  Occ=0.000000D+00  E= 1.077064D+00

 Vector   90  Occ=0.000000D+00  E= 1.077065D+00

 Vector   91  Occ=0.000000D+00  E= 1.155697D+00

 Vector   92  Occ=0.000000D+00  E= 1.190138D+00

 Vector   93  Occ=0.000000D+00  E= 1.190138D+00

 Vector   94  Occ=0.000000D+00  E= 1.190138D+00

 Vector   95  Occ=0.000000D+00  E= 1.197224D+00

 Vector   96  Occ=0.000000D+00  E= 1.197226D+00

 Vector   97  Occ=0.000000D+00  E= 1.197228D+00

 Vector   98  Occ=0.000000D+00  E= 1.218586D+00

 Vector   99  Occ=0.000000D+00  E= 1.264242D+00

 Vector  100  Occ=0.000000D+00  E= 1.264245D+00

 Vector  101  Occ=0.000000D+00  E= 1.264248D+00

 Vector  102  Occ=0.000000D+00  E= 1.292526D+00

 Vector  103  Occ=0.000000D+00  E= 1.292530D+00

 Vector  104  Occ=0.000000D+00  E= 1.297746D+00

 Vector  105  Occ=0.000000D+00  E= 1.399573D+00

 Vector  106  Occ=0.000000D+00  E= 1.399576D+00

 Vector  107  Occ=0.000000D+00  E= 1.399579D+00

 Vector  108  Occ=0.000000D+00  E= 1.490370D+00

 Vector  109  Occ=0.000000D+00  E= 1.490371D+00

 Vector  110  Occ=0.000000D+00  E= 1.490372D+00

 Vector  111  Occ=0.000000D+00  E= 1.592063D+00

 Vector  112  Occ=0.000000D+00  E= 1.592066D+00

 Vector  113  Occ=0.000000D+00  E= 1.592069D+00

 Vector  114  Occ=0.000000D+00  E= 1.736997D+00

 Vector  115  Occ=0.000000D+00  E= 1.736999D+00

 Vector  116  Occ=0.000000D+00  E= 1.737002D+00

 Vector  117  Occ=0.000000D+00  E= 1.790944D+00

 Vector  118  Occ=0.000000D+00  E= 2.096137D+00

 Vector  119  Occ=0.000000D+00  E= 2.096139D+00

 Vector  120  Occ=0.000000D+00  E= 2.417665D+00

 Vector  121  Occ=0.000000D+00  E= 2.417667D+00

 Vector  122  Occ=0.000000D+00  E= 2.417668D+00

     Multipole analysis of the density
     ---------------------------------

     L   x y z        total         alpha         beta         nuclear
     -   - - -        -----         -----         ----         -------
     0   0 0 0     -0.000000    -38.000000    -38.000000     76.000000

     1   1 0 0     -0.000000     -0.000000     -0.000000      0.000000
     1   0 1 0     -0.000002     -0.000001     -0.000001     -0.000000
     1   0 0 1      0.000000      0.000000      0.000000      0.000000

     2   2 0 0    -47.917405   -188.555213   -188.555213    329.193022
     2   1 1 0      0.000000     -0.000000     -0.000000      0.000000
     2   1 0 1     -0.000009     -0.000004     -0.000004      0.000000
     2   0 2 0    -47.917378   -188.555580   -188.555580    329.193781
     2   0 1 1     -0.000010     -0.000005     -0.000005      0.000000

  Root   1 singlet a              0.405301165 a.u.               11.0288 eV
     Dipole Oscillator Strength                    0.0028114609
  Root   2 singlet a              0.405301331 a.u.               11.0288 eV
     Dipole Oscillator Strength                    0.0028110448
  Root   3 singlet a              0.405302325 a.u.               11.0288 eV
     Dipole Oscillator Strength                    0.0028114020
  Root   4 singlet a              0.437998426 a.u.               11.9185 eV
     Dipole Oscillator Strength                    0.0000000004
  Root   5 singlet a              0.437999426 a.u.               11.9186 eV
     Dipole Oscillator Strength                    0.0000000002
  Root   6 singlet a              0.437999938 a.u.               11.9186 eV
     Dipole Oscillator Strength                    0.0000000001
  Root   7 singlet a              0.449209422 a.u.               12.2236 eV
     Dipole Oscillator Strength                    0.0000000002
  Root   8 singlet a              0.449209646 a.u.               12.2236 eV
     Dipole Oscillator Strength                    0.0000000000
  Root   9 singlet a              0.457545424 a.u.               12.4504 eV
     Dipole Oscillator Strength                    0.0000000000
  Root  10 singlet a              0.457545941 a.u.               12.4505 eV
     Dipole Oscillator Strength                    0.0000000000
  Root  11 singlet a              0.457546402 a.u.               12.4505 eV
     Dipole Oscillator Strength                    0.0000000000
  Root  12 singlet a              0.457965160 a.u.               12.4619 eV
     Dipole Oscillator Strength                    0.0000000101
  Root  13 singlet a              0.459747456 a.u.               12.5104 eV
     Dipole Oscillator Strength                    0.0980260845
  Root  14 singlet a              0.459747886 a.u.               12.5104 eV
     Dipole Oscillator Strength                    0.0980251943
  Root  15 singlet a              0.459748666 a.u.               12.5104 eV
     Dipole Oscillator Strength                    0.0980015907
  Root  16 singlet a              0.461706068 a.u.               12.5637 eV
     Dipole Oscillator Strength                    0.0000000039
  Root  17 singlet a              0.461706478 a.u.               12.5637 eV
     Dipole Oscillator Strength                    0.0000000027
  Root  18 singlet a              0.475676033 a.u.               12.9438 eV
     Dipole Oscillator Strength                    0.5016023188
  Root  19 singlet a              0.475676386 a.u.               12.9438 eV
     Dipole Oscillator Strength                    0.5016218971
  Root  20 singlet a              0.475677166 a.u.               12.9438 eV
     Dipole Oscillator Strength                    0.5016171064
  Root  21 singlet a              0.479580712 a.u.               13.0501 eV
     Dipole Oscillator Strength                    0.0000000023
  Root  22 singlet a              0.479581374 a.u.               13.0501 eV
     Dipole Oscillator Strength                    0.0000000010
  Root  23 singlet a              0.479581650 a.u.               13.0501 eV
     Dipole Oscillator Strength                    0.0000000004
  Root  24 singlet a              0.483897848 a.u.               13.1675 eV
     Dipole Oscillator Strength                    0.0000000000
  Root  25 singlet a              0.484627984 a.u.               13.1874 eV
     Dipole Oscillator Strength                    0.7665594419
  Root  26 singlet a              0.484628267 a.u.               13.1874 eV
     Dipole Oscillator Strength                    0.7665726752
  Root  27 singlet a              0.484628965 a.u.               13.1874 eV
     Dipole Oscillator Strength                    0.7665179069
  Root  28 singlet a              0.487034970 a.u.               13.2529 eV
     Dipole Oscillator Strength                    0.0000000013
  Root  29 singlet a              0.487035049 a.u.               13.2529 eV
     Dipole Oscillator Strength                    0.0000000007
  Root  30 singlet a              0.487036287 a.u.               13.2529 eV
     Dipole Oscillator Strength                    0.0000000002
  Root  31 singlet a              0.493199449 a.u.               13.4206 eV
     Dipole Oscillator Strength                    0.0000000019
  Root  32 singlet a              0.493958045 a.u.               13.4413 eV
     Dipole Oscillator Strength                    0.0000000000
  Root  33 singlet a              0.493958195 a.u.               13.4413 eV
     Dipole Oscillator Strength                    0.0000000000
  Root  34 singlet a              0.497404031 a.u.               13.5351 eV
     Dipole Oscillator Strength                    0.1924783414
  Root  35 singlet a              0.497404415 a.u.               13.5351 eV
     Dipole Oscillator Strength                    0.1925027437
  Root  36 singlet a              0.497404505 a.u.               13.5351 eV
     Dipole Oscillator Strength                    0.1924884122
  Root  37 singlet a              0.501540678 a.u.               13.6476 eV
     Dipole Oscillator Strength                    0.0000000000
  Root  38 singlet a              0.501540944 a.u.               13.6476 eV
     Dipole Oscillator Strength                    0.0000000001
  Root  39 singlet a              0.501541250 a.u.               13.6476 eV
     Dipole Oscillator Strength                    0.0000000001
  Root  40 singlet a              0.513306542 a.u.               13.9678 eV
     Dipole Oscillator Strength                    0.1691654037
 Total times  cpu:       54.3s     wall:       54.3s
