============================== echo of input deck ==============================
echo
start adamant
geometry  units angstroms noautosym  noautoz
C         -0.19305        1.82219       -0.88212
C          0.69674        0.94007        0.00000
C         -0.19305        0.05795        0.88212
H          1.35905        0.32766       -0.61241
H          1.35905        1.55248        0.61241
C         -1.07517        0.94007        1.77192
C         -1.95729        1.82219        0.88212
H         -1.68758        0.32766        2.43422
H         -0.46276        1.55248        2.43422
C         -1.07517        2.71199        0.00000
H         -1.68758        3.37430       -0.61241
H         -0.46276        3.37430        0.61241
C         -1.07517        0.94007       -1.77192
H          0.43561        2.45085       -1.51078
C         -1.07517       -0.83185        0.00000
H          0.43561       -0.57071        1.51078
C         -1.95729        0.05795       -0.88212
H         -0.46276       -1.49415       -0.61241
H         -1.68758       -1.49415        0.61241
H         -2.58595       -0.57071       -1.51078
C         -2.84709        0.94007        0.00000
H         -1.68758        1.55248       -2.43422
H         -0.46276        0.32766       -2.43422
H         -3.50940        1.55248       -0.61241
H         -2.58595        2.45085        1.51078
H         -3.50940        0.32766        0.61241
 symmetry c1
end

basis
 *  library 6-31G
end

dft
 xc xpbe96 1.0 cpbe96 1.0
 mult 1
end

tddft
 rpa
 nroots 40
 singlet
 notriplet
 civecs
end

task tddft energy

dplot
 civecs adamant.civecs_singlet
 root 1
 LimitXYZ
  -5.0 5.0 50
  -5.0 5.0 50
  -5.0 5.0 50
   gaussian
   output root-1.cube
end
task dplot

================================================================================

 Output coordinates in angstroms (scale by  1.889725989 to convert to a.u.)

  No.       Tag          Charge          X              Y              Z
 ---- ---------------- ---------- -------------- -------------- --------------
    1 C                    6.0000     0.88212105     0.88211974    -0.88212000
    2 C                    6.0000     1.77191105    -0.00000026    -0.00000000
    3 C                    6.0000     0.88212105    -0.88212026     0.88212000
    4 H                    1.0000     2.43422105    -0.61241026    -0.61241000
    5 H                    1.0000     2.43422105     0.61240974     0.61241000
    6 C                    6.0000     0.00000105    -0.00000026     1.77192000
    7 C                    6.0000    -0.88211895     0.88211974     0.88212000
    8 H                    1.0000    -0.61240895    -0.61241026     2.43422000
    9 H                    1.0000     0.61241105     0.61240974     2.43422000
   10 C                    6.0000     0.00000105     1.77191974    -0.00000000
   11 H                    1.0000    -0.61240895     2.43422974    -0.61241000
   12 H                    1.0000     0.61241105     2.43422974     0.61241000
   13 C                    6.0000     0.00000105    -0.00000026    -1.77192000
   14 H                    1.0000     1.51078105     1.51077974    -1.51078000
   15 C                    6.0000     0.00000105    -1.77192026    -0.00000000
   16 H                    1.0000     1.51078105    -1.51078026     1.51078000
   17 C                    6.0000    -0.88211895    -0.88212026    -0.88212000
   18 H                    1.0000     0.61241105    -2.43422026    -0.61241000
   19 H                    1.0000    -0.61240895    -2.43422026     0.61241000
   20 H                    1.0000    -1.51077895    -1.51078026    -1.51078000
   21 C                    6.0000    -1.77191895    -0.00000026    -0.00000000
   22 H                    1.0000    -0.61240895     0.61240974    -2.43422000
   23 H                    1.0000     0.61241105    -0.61241026    -2.43422000
   24 H                    1.0000    -2.43422895     0.61240974    -0.61241000
   25 H                    1.0000    -1.51077895     1.51077974     1.51078000
   26 H                    1.0000    -2.43422895    -0.61241026     0.61241000

         Total DFT energy =     -390.092559115744

                       DFT Final Molecular Orbital Analysis
                       ------------------------------------

 Vector    1  Occ=2.000000D+00  E=-9.880935D+00

 Vector   43  Occ=0.000000D+00  E= 1.137995D-01

 Vector   44  Occ=0.000000D+00  E= 1.137998D-01

 Vector   45  Occ=0.000000D+00  E= 1.138001D-01

 Vector   46  Occ=0.000000D+00  E= 1.303746D-01

 Vector   47  Occ=0.000000D+00  E= 1.447919D-01

 Vector   48  Occ=0.000000D+00  E= 1.447923D-01

 Vector   49  Occ=0.000000D+00  E= 1.747562D-01

 Vector   50  Occ=0.000000D+00  E= 1.747564D-01

 Vector   51  Occ=0.000000D+00  E= 1.747568D-01

 Vector   52  Occ=0.000000D+00  E= 1.826320D-01

 Vector   53  Occ=0.000000D+00  E= 1.826329D-01

 Vector   54  Occ=0.000000D+00  E= 1.826334D-01

 Vector   55  Occ=0.000000D+00  E= 2.073273D-01

 Vector   56  Occ=0.000000D+00  E= 2.073280D-01

 Vector   57  Occ=0.000000D+00  E= 2.073282D-01

 Vector   58  Occ=0.000000D+00  E= 2.104463D-01

 Vector   59  Occ=0.000000D+00  E= 2.104468D-01

 Vector   60  Occ=0.000000D+00  E= 2.496280D-01

 Vector   61  Occ=0.000000D+00  E= 2.536161D-01

 Vector   62  Occ=0.000000D+00  E= 2.536167D-01

 Vector   63  Occ=0.000000D+00  E= 2.536167D-01

 Vector   64  Occ=0.000000D+00  E= 2.784510D-01

 Vector   65  Occ=0.000000D+00  E= 2.784513D-01

 Vector   66  Occ=0.000000D+00  E= 2.784527D-01

 Vector   67  Occ=0.000000D+00  E= 5.334110D-01

 Vector   68  Occ=0.000000D+00  E= 5.334122D-01

 Vector   69  Occ=0.000000D+00  E= 5.334123D-01

 Vector   70  Occ=0.000000D+00  E= 5.375824D-01

 Vector   71  Occ=0.000000D+00  E= 5.375840D-01

 Vector   72  Occ=0.000000D+00  E= 5.375841D-01

 Vector   73  Occ=0.000000D+00  E= 5.873260D-01

 Vector   74  Occ=0.000000D+00  E= 5.987951D-01

 Vector   75  Occ=0.000000D+00  E= 5.987957D-01

 Vector   76  Occ=0.000000D+00  E= 5.987958D-01

 Vector   77  Occ=0.000000D+00  E= 6.382515D-01

 Vector   78  Occ=0.000000D+00  E= 6.382521D-01

 Vector   79  Occ=0.000000D+00  E= 6.444713D-01

 Vector   80  Occ=0.000000D+00  E= 6.852065D-01

 Vector   81  Occ=0.000000D+00  E= 6.852095D-01

 Vector   82  Occ=0.000000D+00  E= 6.980563D-01

 Vector   83  Occ=0.000000D+00  E= 6.980564D-01

 Vector   84  Occ=0.000000D+00  E= 6.980568D-01

 Vector   85  Occ=0.000000D+00  E= 7.466988D-01

 Vector   86  Occ=0.000000D+00  E= 7.466991D-01

 Vector   87  Occ=0.000000D+00  E= 7.466999D-01

 Vector   88  Occ=0.000000D+00  E= 7.746154D-01

 Vector   89  Occ=0.000000D+00  E= 7.746161D-01

 Vector   90  Occ=0.000000D+00  E= 7.746169D-01

 Vector   91  Occ=0.000000D+00  E= 8.465136D-01

 Vector   92  Occ=0.000000D+00  E= 8.707874D-01

 Vector   93  Occ=0.000000D+00  E= 8.707889D-01

 Vector   94  Occ=0.000000D+00  E= 8.707904D-01

 Vector   95  Occ=0.000000D+00  E= 8.716072D-01

 Vector   96  Occ=0.000000D+00  E= 8.716074D-01

 Vector   97  Occ=0.000000D+00  E= 8.716077D-01

 Vector   98  Occ=0.000000D+00  E= 9.050893D-01

 Vector   99  Occ=0.000000D+00  E= 9.356939D-01

 Vector  100  Occ=0.000000D+00  E= 9.356964D-01

 Vector  101  Occ=0.000000D+00  E= 9.356988D-01

 Vector  102  Occ=0.000000D+00  E= 9.636047D-01

 Vector  103  Occ=0.000000D+00  E= 9.636084D-01

 Vector  104  Occ=0.000000D+00  E= 9.869247D-01

 Vector  105  Occ=0.000000D+00  E= 1.084269D+00

 Vector  106  Occ=0.000000D+00  E= 1.084272D+00

 Vector  107  Occ=0.000000D+00  E= 1.084275D+00

 Vector  108  Occ=0.000000D+00  E= 1.194302D+00

 Vector  109  Occ=0.000000D+00  E= 1.194303D+00

 Vector  110  Occ=0.000000D+00  E= 1.194304D+00

 Vector  111  Occ=0.000000D+00  E= 1.285981D+00

 Vector  112  Occ=0.000000D+00  E= 1.285984D+00

 Vector  113  Occ=0.000000D+00  E= 1.285986D+00

 Vector  114  Occ=0.000000D+00  E= 1.415252D+00

 Vector  115  Occ=0.000000D+00  E= 1.415254D+00

 Vector  116  Occ=0.000000D+00  E= 1.415257D+00

 Vector  117  Occ=0.000000D+00  E= 1.482641D+00

 Vector  118  Occ=0.000000D+00  E= 1.767917D+00

 Vector  119  Occ=0.000000D+00  E= 1.767919D+00

 Vector  120  Occ=0.000000D+00  E= 2.077166D+00

 Vector  121  Occ=0.000000D+00  E= 2.077168D+00

 Vector  122  Occ=0.000000D+00  E= 2.077169D+00

     Multipole analysis of the density
     ---------------------------------

     L   x y z        total         alpha         beta         nuclear
     -   - - -        -----         -----         ----         -------
     0   0 0 0     -0.000000    -38.000000    -38.000000     76.000000

     1   1 0 0     -0.000000     -0.000000     -0.000000      0.000000
     1   0 1 0     -0.000002     -0.000001     -0.000001     -0.000000
     1   0 0 1     -0.000000     -0.000000     -0.000000      0.000000

     2   2 0 0    -46.734533   -187.963777   -187.963777    329.193022
     2   1 1 0     -0.000000     -0.000000     -0.000000      0.000000
     2   1 0 1     -0.000009     -0.000004     -0.000004      0.000000
     2   0 2 0    -46.734514   -187.964148   -187.964148    329.193781
     2   0 1 1     -0.000008     -0.000004     -0.000004      0.000000

  Root   1 singlet a              0.284144339 a.u.                7.7320 eV
     Dipole Oscillator Strength                    0.0031679630
  Root   2 singlet a              0.284144515 a.u.                7.7320 eV
     Dipole Oscillator Strength                    0.0031678146
  Root   3 singlet a              0.284145329 a.u.                7.7320 eV
     Dipole Oscillator Strength                    0.0031678423
  Root   4 singlet a              0.325588850 a.u.                8.8597 eV
     Dipole Oscillator Strength                    0.0000000000
  Root   5 singlet a              0.325589648 a.u.                8.8597 eV
     Dipole Oscillator Strength                    0.0000000000
  Root   6 singlet a              0.325590010 a.u.                8.8598 eV
     Dipole Oscillator Strength                    0.0000000000
  Root   7 singlet a              0.334548498 a.u.                9.1035 eV
     Dipole Oscillator Strength                    0.0000000000
  Root   8 singlet a              0.334548789 a.u.                9.1035 eV
     Dipole Oscillator Strength                    0.0000000000
  Root   9 singlet a              0.337915079 a.u.                9.1951 eV
     Dipole Oscillator Strength                    0.0000000000
  Root  10 singlet a              0.337915587 a.u.                9.1952 eV
     Dipole Oscillator Strength                    0.0000000001
  Root  11 singlet a              0.337915807 a.u.                9.1952 eV
     Dipole Oscillator Strength                    0.0000000005
  Root  12 singlet a              0.338716573 a.u.                9.2170 eV
     Dipole Oscillator Strength                    0.0000000013
  Root  13 singlet a              0.338716938 a.u.                9.2170 eV
     Dipole Oscillator Strength                    0.0000000001
  Root  14 singlet a              0.342625822 a.u.                9.3233 eV
     Dipole Oscillator Strength                    0.1524623228
  Root  15 singlet a              0.342626390 a.u.                9.3233 eV
     Dipole Oscillator Strength                    0.1524675160
  Root  16 singlet a              0.342626508 a.u.                9.3233 eV
     Dipole Oscillator Strength                    0.1524626283
  Root  17 singlet a              0.344285655 a.u.                9.3685 eV
     Dipole Oscillator Strength                    0.0000000121
  Root  18 singlet a              0.346468248 a.u.                9.4279 eV
     Dipole Oscillator Strength                    0.0000000025
  Root  19 singlet a              0.346468762 a.u.                9.4279 eV
     Dipole Oscillator Strength                    0.0000000005
  Root  20 singlet a              0.346468951 a.u.                9.4279 eV
     Dipole Oscillator Strength                    0.0000000005
  Root  21 singlet a              0.347341188 a.u.                9.4516 eV
     Dipole Oscillator Strength                    0.0106183447
  Root  22 singlet a              0.347341701 a.u.                9.4517 eV
     Dipole Oscillator Strength                    0.0106171624
  Root  23 singlet a              0.347341978 a.u.                9.4517 eV
     Dipole Oscillator Strength                    0.0106204114
  Root  24 singlet a              0.347547196 a.u.                9.4572 eV
     Dipole Oscillator Strength                    0.0000000313
  Root  25 singlet a              0.347547456 a.u.                9.4573 eV
     Dipole Oscillator Strength                    0.0000000105
  Root  26 singlet a              0.347919326 a.u.                9.4674 eV
     Dipole Oscillator Strength                    0.0000000162
  Root  27 singlet a              0.363719856 a.u.                9.8973 eV
     Dipole Oscillator Strength                    0.0413851948
  Root  28 singlet a              0.363720035 a.u.                9.8973 eV
     Dipole Oscillator Strength                    0.0413844149
  Root  29 singlet a              0.363720750 a.u.                9.8973 eV
     Dipole Oscillator Strength                    0.0413824640
  Root  30 singlet a              0.376137129 a.u.               10.2352 eV
     Dipole Oscillator Strength                    0.0000000003
  Root  31 singlet a              0.376137316 a.u.               10.2352 eV
     Dipole Oscillator Strength                    0.0000000001
  Root  32 singlet a              0.376137757 a.u.               10.2352 eV
     Dipole Oscillator Strength                    0.0000000001
  Root  33 singlet a              0.378100536 a.u.               10.2886 eV
     Dipole Oscillator Strength                    0.0032956950
  Root  34 singlet a              0.378100852 a.u.               10.2887 eV
     Dipole Oscillator Strength                    0.0032958491
  Root  35 singlet a              0.378101347 a.u.               10.2887 eV
     Dipole Oscillator Strength                    0.0032953921
  Root  36 singlet a              0.380779817 a.u.               10.3616 eV
     Dipole Oscillator Strength                    0.0000000000
  Root  37 singlet a              0.382032790 a.u.               10.3956 eV
     Dipole Oscillator Strength                    0.0000000000
  Root  38 singlet a              0.382032914 a.u.               10.3956 eV
     Dipole Oscillator Strength                    0.0000000000
  Root  39 singlet a              0.382033173 a.u.               10.3957 eV
     Dipole Oscillator Strength                    0.0000000000
  Root  40 singlet a              0.382832763 a.u.               10.4174 eV
     Dipole Oscillator Strength                    0.0000000000
 Total times  cpu:      328.2s     wall:      328.2s
