============================== echo of input deck ==============================
echo

title "optimization of LiF"

start LiF

#============= Define the basis ================
basis
 * library 6-311++G**
end

#============= Define the method ===============
# as singlet
scf
 rhf
 singlet
 thresh 1e-8
end

driver
 tight
 xyz
end

freq
 animate
end

ccsd
  maxiter 50
  freeze core
  thresh 1e-8
end

#============ Now do the geometry scan ===========

geometry units angstrom
Li        0.0000000000      0.0000000000      0.00066850000
F        0.0000000000      0.0000000000       1.50066850000
symmetry c1
end

task ccsd optimize
task ccsd frequencies

================================================================================

         Total SCF energy =   -106.973336367804
 Total MP2 energy:           -107.242636214927444
         Total SCF energy =   -106.973723179666
 Total MP2 energy:           -107.243106248489966
         Total SCF energy =   -106.972900835458
 Total MP2 energy:           -107.242117517079308
@ Step       Energy      Delta E   Gmax     Grms     Xrms     Xmax   Walltime
@ ---- ---------------- -------- -------- -------- -------- -------- --------
@    0    -107.24185959  0.0D+00  0.03291  0.03291  0.00000  0.00000      4.1
         Total SCF energy =   -106.974497724873
 Total MP2 energy:           -107.244092067909747
         Total SCF energy =   -106.975283913024
 Total MP2 energy:           -107.245411142075199
         Total SCF energy =   -106.975273218378
 Total MP2 energy:           -107.245483358235077
         Total SCF energy =   -106.975261021606
 Total MP2 energy:           -107.245305239396885
@    1    -107.24434668 -2.5D-03  0.00426  0.00426  0.04059  0.07031      9.2
         Total SCF energy =   -106.975256588142
 Total MP2 energy:           -107.245506365948017
         Total SCF energy =   -106.975240860562
 Total MP2 energy:           -107.245517983588286
         Total SCF energy =   -106.975172587536
 Total MP2 energy:           -107.245532400202620
         Total SCF energy =   -106.975277798465
 Total MP2 energy:           -107.245472103277976
@    2    -107.24440147 -5.5D-05  0.00010  0.00010  0.00738  0.01279     14.4
         Total SCF energy =   -106.975238513432
 Total MP2 energy:           -107.245519267466790
         Total SCF energy =   -106.975238513432
 Total MP2 energy:           -107.245519267466790
         Total SCF energy =   -106.975168892952
 Total MP2 energy:           -107.245532330623249
         Total SCF energy =   -106.975276851655
 Total MP2 energy:           -107.245474792785458
@    3    -107.24440150 -2.4D-08  0.00000  0.00000  0.00018  0.00031     18.6
         Total SCF energy =   -106.975238427451

 Vector    6  Occ=2.000000D+00  E=-4.743030D-01

 Vector    7  Occ=0.000000D+00  E=-1.140950D-02

 Vector    8  Occ=0.000000D+00  E= 1.542839D-02

 Vector    9  Occ=0.000000D+00  E= 1.542839D-02

 Vector   10  Occ=0.000000D+00  E= 2.007314D-02

 Vector   11  Occ=0.000000D+00  E= 2.842978D-02

 Vector   12  Occ=0.000000D+00  E= 6.169116D-02

 Vector   13  Occ=0.000000D+00  E= 6.169116D-02

 Vector   14  Occ=0.000000D+00  E= 9.203934D-02

 Vector   15  Occ=0.000000D+00  E= 1.402484D-01

 Vector   16  Occ=0.000000D+00  E= 1.751276D-01

 Vector   17  Occ=0.000000D+00  E= 1.751276D-01

 Vector   18  Occ=0.000000D+00  E= 2.184614D-01

 Vector   19  Occ=0.000000D+00  E= 4.107686D-01

 Vector   20  Occ=0.000000D+00  E= 4.107686D-01

 Vector   21  Occ=0.000000D+00  E= 4.189524D-01

 Vector   22  Occ=0.000000D+00  E= 5.755099D-01

 Total MP2 energy:           -107.245519312724824
         Total SCF energy =   -106.975238427451
 Total MP2 energy:           -107.245519312724824
         Total SCF energy =   -106.975168758342

 Vector    2  Occ=2.000000D+00  E=-2.447068D+00

 Vector    3  Occ=2.000000D+00  E=-1.376296D+00

 Vector    4  Occ=2.000000D+00  E=-4.962280D-01

 Vector    5  Occ=2.000000D+00  E=-4.734996D-01

 Vector    6  Occ=2.000000D+00  E=-4.734996D-01

 Vector    7  Occ=0.000000D+00  E=-1.159333D-02

 Vector    8  Occ=0.000000D+00  E= 1.540997D-02

 Vector    9  Occ=0.000000D+00  E= 1.540997D-02

 Vector   10  Occ=0.000000D+00  E= 1.997320D-02

 Vector   11  Occ=0.000000D+00  E= 2.846181D-02

 Vector   12  Occ=0.000000D+00  E= 6.153742D-02

 Vector   13  Occ=0.000000D+00  E= 6.153742D-02

 Vector   14  Occ=0.000000D+00  E= 9.202664D-02

 Vector   15  Occ=0.000000D+00  E= 1.400546D-01

 Vector   16  Occ=0.000000D+00  E= 1.747792D-01

 Vector   17  Occ=0.000000D+00  E= 1.747792D-01

 Vector   18  Occ=0.000000D+00  E= 2.184654D-01

 Vector   19  Occ=0.000000D+00  E= 4.107595D-01

 Vector   20  Occ=0.000000D+00  E= 4.107595D-01

 Vector   21  Occ=0.000000D+00  E= 4.190698D-01

 Vector   22  Occ=0.000000D+00  E= 5.742015D-01

 Total MP2 energy:           -107.245532327034809
         Total SCF energy =   -106.975276816261

 Vector    2  Occ=2.000000D+00  E=-2.445023D+00

 Vector    3  Occ=2.000000D+00  E=-1.378076D+00

 Vector    4  Occ=2.000000D+00  E=-4.981348D-01

 Vector    5  Occ=2.000000D+00  E=-4.751113D-01

 Vector    6  Occ=2.000000D+00  E=-4.751113D-01

 Vector    7  Occ=0.000000D+00  E=-1.122635D-02

 Vector    8  Occ=0.000000D+00  E= 1.544665D-02

 Vector    9  Occ=0.000000D+00  E= 1.544665D-02

 Vector   10  Occ=0.000000D+00  E= 2.017234D-02

 Vector   11  Occ=0.000000D+00  E= 2.839918D-02

 Vector   12  Occ=0.000000D+00  E= 6.184445D-02

 Vector   13  Occ=0.000000D+00  E= 6.184445D-02

 Vector   14  Occ=0.000000D+00  E= 9.205058D-02

 Vector   15  Occ=0.000000D+00  E= 1.404394D-01

 Vector   16  Occ=0.000000D+00  E= 1.754766D-01

 Vector   17  Occ=0.000000D+00  E= 1.754766D-01

 Vector   18  Occ=0.000000D+00  E= 2.184622D-01

 Vector   19  Occ=0.000000D+00  E= 4.107789D-01

 Vector   20  Occ=0.000000D+00  E= 4.107789D-01

 Vector   21  Occ=0.000000D+00  E= 4.188322D-01

 Vector   22  Occ=0.000000D+00  E= 5.767662D-01

 Total MP2 energy:           -107.245474888824432
@    4    -107.24440150  2.7D-10  0.00000  0.00000  0.00001  0.00001     22.8
@    4    -107.24440150  2.7D-10  0.00000  0.00000  0.00001  0.00001     22.8

 Output coordinates in angstroms (scale by  1.889725989 to convert to a.u.)

  No.       Tag          Charge          X              Y              Z
 ---- ---------------- ---------- -------------- -------------- --------------
    1 Li                   3.0000     0.00000000     0.00000000    -1.16914554
    2 F                    9.0000     0.00000000     0.00000000     0.41914554

         Total SCF energy =   -106.975238427451

 Vector    2  Occ=2.000000D+00  E=-2.446043D+00

 Vector    3  Occ=2.000000D+00  E=-1.377185D+00

 Vector    4  Occ=2.000000D+00  E=-4.971825D-01

 Vector    5  Occ=2.000000D+00  E=-4.743030D-01

 Vector    6  Occ=2.000000D+00  E=-4.743030D-01

 Vector    7  Occ=0.000000D+00  E=-1.140950D-02

 Vector    8  Occ=0.000000D+00  E= 1.542839D-02

 Vector    9  Occ=0.000000D+00  E= 1.542839D-02

 Vector   10  Occ=0.000000D+00  E= 2.007314D-02

 Vector   11  Occ=0.000000D+00  E= 2.842978D-02

 Vector   12  Occ=0.000000D+00  E= 6.169116D-02

 Vector   13  Occ=0.000000D+00  E= 6.169116D-02

 Vector   14  Occ=0.000000D+00  E= 9.203934D-02

 Vector   15  Occ=0.000000D+00  E= 1.402484D-01

 Vector   16  Occ=0.000000D+00  E= 1.751276D-01

 Vector   17  Occ=0.000000D+00  E= 1.751276D-01

 Vector   18  Occ=0.000000D+00  E= 2.184614D-01

 Vector   19  Occ=0.000000D+00  E= 4.107686D-01

 Vector   20  Occ=0.000000D+00  E= 4.107686D-01

 Vector   21  Occ=0.000000D+00  E= 4.189524D-01

 Vector   22  Occ=0.000000D+00  E= 5.755099D-01

       Multipole analysis of the density wrt the origin
       ------------------------------------------------

     L   x y z        total         open         nuclear
     -   - - -        -----         ----         -------
     0   0 0 0     -0.000000      0.000000     12.000000

     1   1 0 0     -0.000000      0.000000      0.000000
     1   0 1 0     -0.000000      0.000000      0.000000
     1   0 0 1     -2.639569      0.000000      0.500538

     2   2 0 0     -5.246557      0.000000      0.000000
     2   1 1 0     -0.000000      0.000000      0.000000
     2   1 0 1      0.000000      0.000000      0.000000
     2   0 2 0     -5.246557      0.000000      0.000000
     2   0 1 1     -0.000000      0.000000      0.000000

 Total MP2 energy:           -107.245519312724795
         Total SCF energy =   -106.975238426812
         Total SCF energy =   -106.975192331650
         Total SCF energy =   -106.975268882648
         Total SCF energy =   -106.975238350131
         Total SCF energy =   -106.975238375696
         Total SCF energy =   -106.975238362917
         Total SCF energy =   -106.975238362917
         Total SCF energy =   -106.975238426813
         Total SCF energy =   -106.975192331650
         Total SCF energy =   -106.975268882648
         Total SCF energy =   -106.975238350131
         Total SCF energy =   -106.975238375696
         Total SCF energy =   -106.975238362917
         Total SCF energy =   -106.975238362917
         Total SCF energy =   -106.975238426812
         Total SCF energy =   -106.975192331650
         Total SCF energy =   -106.975268882649
         Total SCF energy =   -106.975238350131
         Total SCF energy =   -106.975238375696
         Total SCF energy =   -106.975238362917
         Total SCF energy =   -106.975238362917
         Total SCF energy =   -106.975238426812
         Total SCF energy =   -106.975192331650
         Total SCF energy =   -106.975268882649
         Total SCF energy =   -106.975238350131
         Total SCF energy =   -106.975238375696
         Total SCF energy =   -106.975238362917
         Total SCF energy =   -106.975238362917
         Total SCF energy =   -106.975242183808
         Total SCF energy =   -106.975197633726
         Total SCF energy =   -106.975271051913
         Total SCF energy =   -106.975242122502
         Total SCF energy =   -106.975242122501
         Total SCF energy =   -106.975242122502
         Total SCF energy =   -106.975242122502
         Total SCF energy =   -106.975234514710
         Total SCF energy =   -106.975186879172
         Total SCF energy =   -106.975266553440
         Total SCF energy =   -106.975234448236
         Total SCF energy =   -106.975234448236
         Total SCF energy =   -106.975234448236
         Total SCF energy =   -106.975234448236
         Total SCF energy =   -106.975238426811
         Total SCF energy =   -106.975168757339
         Total SCF energy =   -106.975276815982
         Total SCF energy =   -106.975238426811
         Total SCF energy =   -106.975168757338
         Total SCF energy =   -106.975276815982
         Total SCF energy =   -106.975238426811
         Total SCF energy =   -106.975168757338
         Total SCF energy =   -106.975276815982
         Total SCF energy =   -106.975238426811
         Total SCF energy =   -106.975168757338
         Total SCF energy =   -106.975276815982
         Total SCF energy =   -106.975234514722
         Total SCF energy =   -106.975162679047
         Total SCF energy =   -106.975275155110
         Total SCF energy =   -106.975242183779
         Total SCF energy =   -106.975174687136
         Total SCF energy =   -106.975278314835
 Zero-Point correction to Energy  =    1.285 kcal/mol  (  0.002047 au)
 Thermal correction to Energy     =    2.799 kcal/mol  (  0.004461 au)
 Thermal correction to Enthalpy   =    3.392 kcal/mol  (  0.005405 au)
 Total Entropy                    =   47.882 cal/mol-K
   - Translational                =   35.688 cal/mol-K (mol. weight =  26.0144)
   - Rotational                   =   12.053 cal/mol-K (symmetry #  =        1)
   - Vibrational                  =    0.140 cal/mol-K
   - Translational                  =    2.979 cal/mol-K
   - Rotational                     =    1.986 cal/mol-K
   - Vibrational                    =    0.501 cal/mol-K
 P.Frequency       -0.00        0.00        0.00        0.00        0.00      899.17
 Total times  cpu:       95.6s     wall:       95.6s
