============================== echo of input deck ==============================
echo

title "optimization of LiF"

start LiF

#============= Define the basis ================
basis
 * library 6-311++G**
end

#============= Define the method ===============
# as singlet
scf
 rhf
 singlet
 thresh 1e-8
end

driver
 tight
 xyz
end

freq
 animate
end

mp2
 freeze core
 tight
end

#============ Now do the geometry scan ===========

geometry units angstrom
Li        0.0000000000      0.0000000000      0.00066850000
F        0.0000000000      0.0000000000       1.50066850000
symmetry c1
end

task mp2 optimize
task mp2 frequencies

================================================================================

         Total SCF energy =   -106.973336367804
          Total MP2 energy          -107.242636214928
@ Step       Energy      Delta E   Gmax     Grms     Xrms     Xmax   Walltime
@ ---- ---------------- -------- -------- -------- -------- -------- --------
@    0    -107.24263621  0.0D+00  0.03494  0.03494  0.00000  0.00000      1.5
         Total SCF energy =   -106.974551066835
          Total MP2 energy          -107.244163567652
         Total SCF energy =   -106.975280221903
          Total MP2 energy          -107.245463818443
@    1    -107.24546382 -2.8D-03  0.00468  0.00468  0.04337  0.07512      3.1
         Total SCF energy =   -106.975209490845

 Vector    6  Occ=2.000000D+00  E=-4.739246D-01

 Vector    7  Occ=0.000000D+00  E=-1.149585D-02

 Vector    8  Occ=0.000000D+00  E= 1.541975D-02

 Vector    9  Occ=0.000000D+00  E= 1.541975D-02

 Vector   10  Occ=0.000000D+00  E= 2.002624D-02

 Vector   11  Occ=0.000000D+00  E= 2.844467D-02

 Vector   12  Occ=0.000000D+00  E= 6.161893D-02

 Vector   13  Occ=0.000000D+00  E= 6.161893D-02

 Vector   14  Occ=0.000000D+00  E= 9.203355D-02

 Vector   15  Occ=0.000000D+00  E= 1.401576D-01

 Vector   16  Occ=0.000000D+00  E= 1.749637D-01

 Vector   17  Occ=0.000000D+00  E= 1.749637D-01

 Vector   18  Occ=0.000000D+00  E= 2.184627D-01

 Vector   19  Occ=0.000000D+00  E= 4.107642D-01

 Vector   20  Occ=0.000000D+00  E= 4.107642D-01

 Vector   21  Occ=0.000000D+00  E= 4.190080D-01

 Vector   22  Occ=0.000000D+00  E= 5.749005D-01

          Total MP2 energy          -107.245529272221
         Total SCF energy =   -106.975178322341

 Vector    2  Occ=2.000000D+00  E=-2.446950D+00

 Vector    3  Occ=2.000000D+00  E=-1.376398D+00

 Vector    4  Occ=2.000000D+00  E=-4.963379D-01

 Vector    5  Occ=2.000000D+00  E=-4.735917D-01

 Vector    6  Occ=2.000000D+00  E=-4.735917D-01

 Vector    7  Occ=0.000000D+00  E=-1.157215D-02

 Vector    8  Occ=0.000000D+00  E= 1.541210D-02

 Vector    9  Occ=0.000000D+00  E= 1.541210D-02

 Vector   10  Occ=0.000000D+00  E= 1.998473D-02

 Vector   11  Occ=0.000000D+00  E= 2.845806D-02

 Vector   12  Occ=0.000000D+00  E= 6.155512D-02

 Vector   13  Occ=0.000000D+00  E= 6.155512D-02

 Vector   14  Occ=0.000000D+00  E= 9.202818D-02

 Vector   15  Occ=0.000000D+00  E= 1.400770D-01

 Vector   16  Occ=0.000000D+00  E= 1.748192D-01

 Vector   17  Occ=0.000000D+00  E= 1.748192D-01

 Vector   18  Occ=0.000000D+00  E= 2.184647D-01

 Vector   19  Occ=0.000000D+00  E= 4.107605D-01

 Vector   20  Occ=0.000000D+00  E= 4.107605D-01

 Vector   21  Occ=0.000000D+00  E= 4.190565D-01

 Vector   22  Occ=0.000000D+00  E= 5.743543D-01

          Total MP2 energy          -107.245532390982
@    2    -107.24553239 -6.9D-05  0.00008  0.00008  0.00841  0.01456      4.5
         Total SCF energy =   -106.975175240962

 Vector    2  Occ=2.000000D+00  E=-2.446989D+00

 Vector    3  Occ=2.000000D+00  E=-1.376365D+00

 Vector    4  Occ=2.000000D+00  E=-4.963020D-01

 Vector    5  Occ=2.000000D+00  E=-4.735616D-01

 Vector    6  Occ=2.000000D+00  E=-4.735616D-01

 Vector    7  Occ=0.000000D+00  E=-1.157907D-02

 Vector    8  Occ=0.000000D+00  E= 1.541140D-02

 Vector    9  Occ=0.000000D+00  E= 1.541140D-02

 Vector   10  Occ=0.000000D+00  E= 1.998097D-02

 Vector   11  Occ=0.000000D+00  E= 2.845929D-02

 Vector   12  Occ=0.000000D+00  E= 6.154934D-02

 Vector   13  Occ=0.000000D+00  E= 6.154934D-02

 Vector   14  Occ=0.000000D+00  E= 9.202768D-02

 Vector   15  Occ=0.000000D+00  E= 1.400697D-01

 Vector   16  Occ=0.000000D+00  E= 1.748062D-01

 Vector   17  Occ=0.000000D+00  E= 1.748062D-01

 Vector   18  Occ=0.000000D+00  E= 2.184650D-01

 Vector   19  Occ=0.000000D+00  E= 4.107602D-01

 Vector   20  Occ=0.000000D+00  E= 4.107602D-01

 Vector   21  Occ=0.000000D+00  E= 4.190608D-01

 Vector   22  Occ=0.000000D+00  E= 5.743044D-01

          Total MP2 energy          -107.245532414197
         Total SCF energy =   -106.975175240962
          Total MP2 energy          -107.245532414197
@    3    -107.24553241 -2.3D-08  0.00000  0.00000  0.00015  0.00027      5.9
         Total SCF energy =   -106.975175114334

 Vector    2  Occ=2.000000D+00  E=-2.446990D+00

 Vector    3  Occ=2.000000D+00  E=-1.376363D+00

 Vector    4  Occ=2.000000D+00  E=-4.963005D-01

 Vector    5  Occ=2.000000D+00  E=-4.735604D-01

 Vector    6  Occ=2.000000D+00  E=-4.735604D-01

 Vector    7  Occ=0.000000D+00  E=-1.157935D-02

 Vector    8  Occ=0.000000D+00  E= 1.541138D-02

 Vector    9  Occ=0.000000D+00  E= 1.541138D-02

 Vector   10  Occ=0.000000D+00  E= 1.998081D-02

 Vector   11  Occ=0.000000D+00  E= 2.845934D-02

 Vector   12  Occ=0.000000D+00  E= 6.154910D-02

 Vector   13  Occ=0.000000D+00  E= 6.154910D-02

 Vector   14  Occ=0.000000D+00  E= 9.202766D-02

 Vector   15  Occ=0.000000D+00  E= 1.400694D-01

 Vector   16  Occ=0.000000D+00  E= 1.748056D-01

 Vector   17  Occ=0.000000D+00  E= 1.748056D-01

 Vector   18  Occ=0.000000D+00  E= 2.184650D-01

 Vector   19  Occ=0.000000D+00  E= 4.107602D-01

 Vector   20  Occ=0.000000D+00  E= 4.107602D-01

 Vector   21  Occ=0.000000D+00  E= 4.190610D-01

 Vector   22  Occ=0.000000D+00  E= 5.743024D-01

       Multipole analysis of the density wrt the origin
       ------------------------------------------------

     L   x y z        total         open         nuclear
     -   - - -        -----         ----         -------
     0   0 0 0     -0.000000      0.000000     12.000000

     1   1 0 0      0.000000      0.000000      0.000000
     1   0 1 0     -0.000000      0.000000      0.000000
     1   0 0 1     -2.652008      0.000000      0.539745

     2   2 0 0     -5.248816      0.000000      0.000000
     2   1 1 0     -0.000000      0.000000      0.000000
     2   1 0 1     -0.000000      0.000000      0.000000
     2   0 2 0     -5.248816      0.000000      0.000000
     2   0 1 1     -0.000000      0.000000      0.000000

          Total MP2 energy          -107.245532414219
         Total SCF energy =   -106.975175114334
          Total MP2 energy          -107.245532414219
@    4    -107.24553241 -2.2D-11  0.00000  0.00000  0.00001  0.00001      7.2
@    4    -107.24553241 -2.2D-11  0.00000  0.00000  0.00001  0.00001      7.2

 Output coordinates in angstroms (scale by  1.889725989 to convert to a.u.)

  No.       Tag          Charge          X              Y              Z
 ---- ---------------- ---------- -------------- -------------- --------------
    1 Li                   3.0000     0.00000000     0.00000000    -1.17260347
    2 F                    9.0000     0.00000000     0.00000000     0.42260347

         Total SCF energy =   -106.975175114334
          Total MP2 energy          -107.245532414219
         Total SCF energy =   -106.975175113365
          Total MP2 energy          -107.245532414217
         Total SCF energy =   -106.975175113365
          Total MP2 energy          -107.245532414218
         Total SCF energy =   -106.975175113365
          Total MP2 energy          -107.245532414218
         Total SCF energy =   -106.975175113365
          Total MP2 energy          -107.245532414217
         Total SCF energy =   -106.975180881247
          Total MP2 energy          -107.245532338338
         Total SCF energy =   -106.975169196524
          Total MP2 energy          -107.245532338483
         Total SCF energy =   -106.975175113364
          Total MP2 energy          -107.245532414218
         Total SCF energy =   -106.975175113364
          Total MP2 energy          -107.245532414217
         Total SCF energy =   -106.975175113364
          Total MP2 energy          -107.245532414218
         Total SCF energy =   -106.975175113364
          Total MP2 energy          -107.245532414218
         Total SCF energy =   -106.975169196533
          Total MP2 energy          -107.245532338492
         Total SCF energy =   -106.975180881230
          Total MP2 energy          -107.245532338322
 Zero-Point correction to Energy  =    1.264 kcal/mol  (  0.002014 au)
 Thermal correction to Energy     =    2.780 kcal/mol  (  0.004430 au)
 Thermal correction to Enthalpy   =    3.372 kcal/mol  (  0.005374 au)
 Total Entropy                    =   47.908 cal/mol-K
   - Translational                =   35.688 cal/mol-K (mol. weight =  26.0144)
   - Rotational                   =   12.071 cal/mol-K (symmetry #  =        1)
   - Vibrational                  =    0.149 cal/mol-K
   - Translational                  =    2.979 cal/mol-K
   - Rotational                     =    1.986 cal/mol-K
   - Vibrational                    =    0.522 cal/mol-K
 P.Frequency        0.00        0.00        0.00        0.00        0.00      884.28

 Normal Eigenvalue ||           Projected Infra Red Intensities
  Mode   [cm**-1]  || [atomic units] [(debye/angs)**2] [(KM/mol)] [arbitrary]
 ------ ---------- || -------------- ----------------- ---------- -----------
    1        0.000 ||    0.103318           2.384       100.719      13.960
    2        0.000 ||    0.103318           2.384       100.719      13.960
    3        0.000 ||    0.038155           0.880        37.195       5.155
    4        0.000 ||    0.038155           0.880        37.195       5.155
    5        0.000 ||    0.000000           0.000         0.000       0.000
    6      884.283 ||    0.161119           3.717       157.067      21.770
 ----------------------------------------------------------------------------

 Total times  cpu:       21.0s     wall:       21.0s
