============================== echo of input deck ==============================
echo
start adamant
geometry  units angstroms noautosym  noautoz
C         -0.19305        1.82219       -0.88212
C          0.69674        0.94007        0.00000
C         -0.19305        0.05795        0.88212
H          1.35905        0.32766       -0.61241
H          1.35905        1.55248        0.61241
C         -1.07517        0.94007        1.77192
C         -1.95729        1.82219        0.88212
H         -1.68758        0.32766        2.43422
H         -0.46276        1.55248        2.43422
C         -1.07517        2.71199        0.00000
H         -1.68758        3.37430       -0.61241
H         -0.46276        3.37430        0.61241
C         -1.07517        0.94007       -1.77192
H          0.43561        2.45085       -1.51078
C         -1.07517       -0.83185        0.00000
H          0.43561       -0.57071        1.51078
C         -1.95729        0.05795       -0.88212
H         -0.46276       -1.49415       -0.61241
H         -1.68758       -1.49415        0.61241
H         -2.58595       -0.57071       -1.51078
C         -2.84709        0.94007        0.00000
H         -1.68758        1.55248       -2.43422
H         -0.46276        0.32766       -2.43422
H         -3.50940        1.55248       -0.61241
H         -2.58595        2.45085        1.51078
H         -3.50940        0.32766        0.61241
 symmetry c1
end

basis
 *  library 6-31G
end

dft
 xc b3lyp
 mult 1
 cs00
end

tddft
 cis
 nroots 40
 singlet
 notriplet
 civecs
end

task tddft energy

dplot
 civecs adamant.civecs_singlet
 root 1
 LimitXYZ
  -5.0 5.0 50
  -5.0 5.0 50
  -5.0 5.0 50
   gaussian
   output root-1.cube
end
task dplot

================================================================================

 Output coordinates in angstroms (scale by  1.889725989 to convert to a.u.)

  No.       Tag          Charge          X              Y              Z
 ---- ---------------- ---------- -------------- -------------- --------------
    1 C                    6.0000     0.88212105     0.88211974    -0.88212000
    2 C                    6.0000     1.77191105    -0.00000026    -0.00000000
    3 C                    6.0000     0.88212105    -0.88212026     0.88212000
    4 H                    1.0000     2.43422105    -0.61241026    -0.61241000
    5 H                    1.0000     2.43422105     0.61240974     0.61241000
    6 C                    6.0000     0.00000105    -0.00000026     1.77192000
    7 C                    6.0000    -0.88211895     0.88211974     0.88212000
    8 H                    1.0000    -0.61240895    -0.61241026     2.43422000
    9 H                    1.0000     0.61241105     0.61240974     2.43422000
   10 C                    6.0000     0.00000105     1.77191974    -0.00000000
   11 H                    1.0000    -0.61240895     2.43422974    -0.61241000
   12 H                    1.0000     0.61241105     2.43422974     0.61241000
   13 C                    6.0000     0.00000105    -0.00000026    -1.77192000
   14 H                    1.0000     1.51078105     1.51077974    -1.51078000
   15 C                    6.0000     0.00000105    -1.77192026    -0.00000000
   16 H                    1.0000     1.51078105    -1.51078026     1.51078000
   17 C                    6.0000    -0.88211895    -0.88212026    -0.88212000
   18 H                    1.0000     0.61241105    -2.43422026    -0.61241000
   19 H                    1.0000    -0.61240895    -2.43422026     0.61241000
   20 H                    1.0000    -1.51077895    -1.51078026    -1.51078000
   21 C                    6.0000    -1.77191895    -0.00000026    -0.00000000
   22 H                    1.0000    -0.61240895     0.61240974    -2.43422000
   23 H                    1.0000     0.61241105    -0.61241026    -2.43422000
   24 H                    1.0000    -2.43422895     0.61240974    -0.61241000
   25 H                    1.0000    -1.51077895     1.51077974     1.51078000
   26 H                    1.0000    -2.43422895    -0.61241026     0.61241000

         Total DFT energy =     -390.621319287330

                       DFT Final Molecular Orbital Analysis
                       ------------------------------------

 Vector    1  Occ=2.000000D+00  E=-1.028695D+01

 Vector   43  Occ=0.000000D+00  E= 4.108267D-02

 Vector   44  Occ=0.000000D+00  E= 4.108299D-02

 Vector   45  Occ=0.000000D+00  E= 4.108325D-02

 Vector   46  Occ=0.000000D+00  E= 5.874181D-02

 Vector   47  Occ=0.000000D+00  E= 7.402031D-02

 Vector   48  Occ=0.000000D+00  E= 7.402073D-02

 Vector   49  Occ=0.000000D+00  E= 1.033564D-01

 Vector   50  Occ=0.000000D+00  E= 1.033566D-01

 Vector   51  Occ=0.000000D+00  E= 1.033569D-01

 Vector   52  Occ=0.000000D+00  E= 1.131019D-01

 Vector   53  Occ=0.000000D+00  E= 1.131028D-01

 Vector   54  Occ=0.000000D+00  E= 1.131033D-01

 Vector   55  Occ=0.000000D+00  E= 1.417230D-01

 Vector   56  Occ=0.000000D+00  E= 1.417237D-01

 Vector   57  Occ=0.000000D+00  E= 1.417238D-01

 Vector   58  Occ=0.000000D+00  E= 1.453928D-01

 Vector   59  Occ=0.000000D+00  E= 1.453933D-01

 Vector   60  Occ=0.000000D+00  E= 1.852730D-01

 Vector   61  Occ=0.000000D+00  E= 1.903942D-01

 Vector   62  Occ=0.000000D+00  E= 1.903948D-01

 Vector   63  Occ=0.000000D+00  E= 1.903948D-01

 Vector   64  Occ=0.000000D+00  E= 2.172197D-01

 Vector   65  Occ=0.000000D+00  E= 2.172200D-01

 Vector   66  Occ=0.000000D+00  E= 2.172216D-01

 Vector   67  Occ=0.000000D+00  E= 4.760035D-01

 Vector   68  Occ=0.000000D+00  E= 4.760051D-01

 Vector   69  Occ=0.000000D+00  E= 4.760052D-01

 Vector   70  Occ=0.000000D+00  E= 4.763515D-01

 Vector   71  Occ=0.000000D+00  E= 4.763526D-01

 Vector   72  Occ=0.000000D+00  E= 4.763529D-01

 Vector   73  Occ=0.000000D+00  E= 5.344560D-01

 Vector   74  Occ=0.000000D+00  E= 5.489850D-01

 Vector   75  Occ=0.000000D+00  E= 5.489858D-01

 Vector   76  Occ=0.000000D+00  E= 5.489859D-01

 Vector   77  Occ=0.000000D+00  E= 5.892661D-01

 Vector   78  Occ=0.000000D+00  E= 5.892667D-01

 Vector   79  Occ=0.000000D+00  E= 5.979467D-01

 Vector   80  Occ=0.000000D+00  E= 6.240851D-01

 Vector   81  Occ=0.000000D+00  E= 6.240882D-01

 Vector   82  Occ=0.000000D+00  E= 6.503845D-01

 Vector   83  Occ=0.000000D+00  E= 6.503846D-01

 Vector   84  Occ=0.000000D+00  E= 6.503851D-01

 Vector   85  Occ=0.000000D+00  E= 6.975379D-01

 Vector   86  Occ=0.000000D+00  E= 6.975383D-01

 Vector   87  Occ=0.000000D+00  E= 6.975392D-01

 Vector   88  Occ=0.000000D+00  E= 7.231794D-01

 Vector   89  Occ=0.000000D+00  E= 7.231801D-01

 Vector   90  Occ=0.000000D+00  E= 7.231810D-01

 Vector   91  Occ=0.000000D+00  E= 8.043188D-01

 Vector   92  Occ=0.000000D+00  E= 8.200017D-01

 Vector   93  Occ=0.000000D+00  E= 8.200032D-01

 Vector   94  Occ=0.000000D+00  E= 8.200048D-01

 Vector   95  Occ=0.000000D+00  E= 8.216136D-01

 Vector   96  Occ=0.000000D+00  E= 8.216138D-01

 Vector   97  Occ=0.000000D+00  E= 8.216142D-01

 Vector   98  Occ=0.000000D+00  E= 8.570049D-01

 Vector   99  Occ=0.000000D+00  E= 8.880492D-01

 Vector  100  Occ=0.000000D+00  E= 8.880518D-01

 Vector  101  Occ=0.000000D+00  E= 8.880543D-01

 Vector  102  Occ=0.000000D+00  E= 9.161471D-01

 Vector  103  Occ=0.000000D+00  E= 9.161508D-01

 Vector  104  Occ=0.000000D+00  E= 9.367572D-01

 Vector  105  Occ=0.000000D+00  E= 1.033228D+00

 Vector  106  Occ=0.000000D+00  E= 1.033231D+00

 Vector  107  Occ=0.000000D+00  E= 1.033234D+00

 Vector  108  Occ=0.000000D+00  E= 1.142437D+00

 Vector  109  Occ=0.000000D+00  E= 1.142438D+00

 Vector  110  Occ=0.000000D+00  E= 1.142439D+00

 Vector  111  Occ=0.000000D+00  E= 1.235080D+00

 Vector  112  Occ=0.000000D+00  E= 1.235083D+00

 Vector  113  Occ=0.000000D+00  E= 1.235085D+00

 Vector  114  Occ=0.000000D+00  E= 1.371924D+00

 Vector  115  Occ=0.000000D+00  E= 1.371926D+00

 Vector  116  Occ=0.000000D+00  E= 1.371928D+00

 Vector  117  Occ=0.000000D+00  E= 1.436180D+00

 Vector  118  Occ=0.000000D+00  E= 1.725332D+00

 Vector  119  Occ=0.000000D+00  E= 1.725334D+00

 Vector  120  Occ=0.000000D+00  E= 2.037446D+00

 Vector  121  Occ=0.000000D+00  E= 2.037448D+00

 Vector  122  Occ=0.000000D+00  E= 2.037449D+00

     Multipole analysis of the density
     ---------------------------------

     L   x y z        total         alpha         beta         nuclear
     -   - - -        -----         -----         ----         -------
     0   0 0 0     -0.000000    -38.000000    -38.000000     76.000000

     1   1 0 0     -0.000000     -0.000000     -0.000000      0.000000
     1   0 1 0     -0.000002     -0.000001     -0.000001     -0.000000
     1   0 0 1      0.000000      0.000000      0.000000      0.000000

     2   2 0 0    -47.818483   -188.505752   -188.505752    329.193022
     2   1 1 0      0.000000      0.000000      0.000000      0.000000
     2   1 0 1     -0.000009     -0.000004     -0.000004      0.000000
     2   0 2 0    -47.818459   -188.506120   -188.506120    329.193781
     2   0 1 1     -0.000008     -0.000004     -0.000004      0.000000

  Root   1 singlet a              0.308243805 a.u.                8.3877 eV
     Dipole Oscillator Strength                    0.0032676014
  Root   2 singlet a              0.308243981 a.u.                8.3877 eV
     Dipole Oscillator Strength                    0.0032676917
  Root   3 singlet a              0.308244831 a.u.                8.3878 eV
     Dipole Oscillator Strength                    0.0032676409
  Root   4 singlet a              0.351236570 a.u.                9.5576 eV
     Dipole Oscillator Strength                    0.0000000000
  Root   5 singlet a              0.351237407 a.u.                9.5577 eV
     Dipole Oscillator Strength                    0.0000000000
  Root   6 singlet a              0.351237740 a.u.                9.5577 eV
     Dipole Oscillator Strength                    0.0000000000
  Root   7 singlet a              0.357412291 a.u.                9.7257 eV
     Dipole Oscillator Strength                    0.0000000002
  Root   8 singlet a              0.357412532 a.u.                9.7257 eV
     Dipole Oscillator Strength                    0.0000000000
  Root   9 singlet a              0.361808067 a.u.                9.8453 eV
     Dipole Oscillator Strength                    0.0000000000
  Root  10 singlet a              0.361808587 a.u.                9.8453 eV
     Dipole Oscillator Strength                    0.0000000000
  Root  11 singlet a              0.361808936 a.u.                9.8453 eV
     Dipole Oscillator Strength                    0.0000000005
  Root  12 singlet a              0.364343210 a.u.                9.9143 eV
     Dipole Oscillator Strength                    0.0000000008
  Root  13 singlet a              0.364343458 a.u.                9.9143 eV
     Dipole Oscillator Strength                    0.0000000005
  Root  14 singlet a              0.368499041 a.u.               10.0274 eV
     Dipole Oscillator Strength                    0.2331854364
  Root  15 singlet a              0.368499666 a.u.               10.0274 eV
     Dipole Oscillator Strength                    0.2332026241
  Root  16 singlet a              0.368499767 a.u.               10.0274 eV
     Dipole Oscillator Strength                    0.2331822268
  Root  17 singlet a              0.369603918 a.u.               10.0574 eV
     Dipole Oscillator Strength                    0.0000000305
  Root  18 singlet a              0.371062418 a.u.               10.0971 eV
     Dipole Oscillator Strength                    0.0260371223
  Root  19 singlet a              0.371062950 a.u.               10.0971 eV
     Dipole Oscillator Strength                    0.0260300976
  Root  20 singlet a              0.371063277 a.u.               10.0971 eV
     Dipole Oscillator Strength                    0.0260435188
  Root  21 singlet a              0.371705231 a.u.               10.1146 eV
     Dipole Oscillator Strength                    0.0000000014
  Root  22 singlet a              0.371705719 a.u.               10.1146 eV
     Dipole Oscillator Strength                    0.0000000024
  Root  23 singlet a              0.371705866 a.u.               10.1146 eV
     Dipole Oscillator Strength                    0.0000000022
  Root  24 singlet a              0.372692957 a.u.               10.1415 eV
     Dipole Oscillator Strength                    0.0000000008
  Root  25 singlet a              0.372693262 a.u.               10.1415 eV
     Dipole Oscillator Strength                    0.0000000003
  Root  26 singlet a              0.373957019 a.u.               10.1759 eV
     Dipole Oscillator Strength                    0.0000000046
  Root  27 singlet a              0.388087868 a.u.               10.5604 eV
     Dipole Oscillator Strength                    0.0824599878
  Root  28 singlet a              0.388088038 a.u.               10.5604 eV
     Dipole Oscillator Strength                    0.0824580569
  Root  29 singlet a              0.388088775 a.u.               10.5604 eV
     Dipole Oscillator Strength                    0.0824550330
  Root  30 singlet a              0.399636817 a.u.               10.8747 eV
     Dipole Oscillator Strength                    0.0000000003
  Root  31 singlet a              0.399636936 a.u.               10.8747 eV
     Dipole Oscillator Strength                    0.0000000001
  Root  32 singlet a              0.399637491 a.u.               10.8747 eV
     Dipole Oscillator Strength                    0.0000000001
  Root  33 singlet a              0.402866832 a.u.               10.9626 eV
     Dipole Oscillator Strength                    0.0054062246
  Root  34 singlet a              0.402867151 a.u.               10.9626 eV
     Dipole Oscillator Strength                    0.0054071416
  Root  35 singlet a              0.402867632 a.u.               10.9626 eV
     Dipole Oscillator Strength                    0.0054060742
  Root  36 singlet a              0.404636183 a.u.               11.0107 eV
     Dipole Oscillator Strength                    0.0000000000
  Root  37 singlet a              0.408730314 a.u.               11.1221 eV
     Dipole Oscillator Strength                    0.0000000005
  Root  38 singlet a              0.408730469 a.u.               11.1221 eV
     Dipole Oscillator Strength                    0.0000000022
  Root  39 singlet a              0.408730731 a.u.               11.1221 eV
     Dipole Oscillator Strength                    0.0000000003
  Root  40 singlet a              0.410515802 a.u.               11.1707 eV
     Dipole Oscillator Strength                    0.0000000059
 Total times  cpu:      124.0s     wall:      124.0s
