============================== echo of input deck ==============================
echo
start adamant
geometry  units angstroms noautosym  noautoz
C         -0.19305        1.82219       -0.88212
C          0.69674        0.94007        0.00000
C         -0.19305        0.05795        0.88212
H          1.35905        0.32766       -0.61241
H          1.35905        1.55248        0.61241
C         -1.07517        0.94007        1.77192
C         -1.95729        1.82219        0.88212
H         -1.68758        0.32766        2.43422
H         -0.46276        1.55248        2.43422
C         -1.07517        2.71199        0.00000
H         -1.68758        3.37430       -0.61241
H         -0.46276        3.37430        0.61241
C         -1.07517        0.94007       -1.77192
H          0.43561        2.45085       -1.51078
C         -1.07517       -0.83185        0.00000
H          0.43561       -0.57071        1.51078
C         -1.95729        0.05795       -0.88212
H         -0.46276       -1.49415       -0.61241
H         -1.68758       -1.49415        0.61241
H         -2.58595       -0.57071       -1.51078
C         -2.84709        0.94007        0.00000
H         -1.68758        1.55248       -2.43422
H         -0.46276        0.32766       -2.43422
H         -3.50940        1.55248       -0.61241
H         -2.58595        2.45085        1.51078
H         -3.50940        0.32766        0.61241
 symmetry c1
end

basis
 *  library 6-31G
end

dft
 xc xcamb88 1.00 lyp 0.81 vwn_5 0.19 hfexch 1.00
 cam 0.33 cam_alpha 0.19 cam_beta 0.46
 mult 1
end

tddft
 rpa
 nroots 40
 singlet
 notriplet
 civecs
end

task tddft energy

dplot
 civecs adamant.civecs_singlet
 root 1
 LimitXYZ
  -5.0 5.0 50
  -5.0 5.0 50
  -5.0 5.0 50
   gaussian
   output root-1.cube
end
task dplot

================================================================================

 Output coordinates in angstroms (scale by  1.889725989 to convert to a.u.)

  No.       Tag          Charge          X              Y              Z
 ---- ---------------- ---------- -------------- -------------- --------------
    1 C                    6.0000     0.88212105     0.88211974    -0.88212000
    2 C                    6.0000     1.77191105    -0.00000026    -0.00000000
    3 C                    6.0000     0.88212105    -0.88212026     0.88212000
    4 H                    1.0000     2.43422105    -0.61241026    -0.61241000
    5 H                    1.0000     2.43422105     0.61240974     0.61241000
    6 C                    6.0000     0.00000105    -0.00000026     1.77192000
    7 C                    6.0000    -0.88211895     0.88211974     0.88212000
    8 H                    1.0000    -0.61240895    -0.61241026     2.43422000
    9 H                    1.0000     0.61241105     0.61240974     2.43422000
   10 C                    6.0000     0.00000105     1.77191974    -0.00000000
   11 H                    1.0000    -0.61240895     2.43422974    -0.61241000
   12 H                    1.0000     0.61241105     2.43422974     0.61241000
   13 C                    6.0000     0.00000105    -0.00000026    -1.77192000
   14 H                    1.0000     1.51078105     1.51077974    -1.51078000
   15 C                    6.0000     0.00000105    -1.77192026    -0.00000000
   16 H                    1.0000     1.51078105    -1.51078026     1.51078000
   17 C                    6.0000    -0.88211895    -0.88212026    -0.88212000
   18 H                    1.0000     0.61241105    -2.43422026    -0.61241000
   19 H                    1.0000    -0.61240895    -2.43422026     0.61241000
   20 H                    1.0000    -1.51077895    -1.51078026    -1.51078000
   21 C                    6.0000    -1.77191895    -0.00000026    -0.00000000
   22 H                    1.0000    -0.61240895     0.61240974    -2.43422000
   23 H                    1.0000     0.61241105    -0.61241026    -2.43422000
   24 H                    1.0000    -2.43422895     0.61240974    -0.61241000
   25 H                    1.0000    -1.51077895     1.51077974     1.51078000
   26 H                    1.0000    -2.43422895    -0.61241026     0.61241000

         Total DFT energy =     -390.387738243112

                       DFT Final Molecular Orbital Analysis
                       ------------------------------------

 Vector    1  Occ=2.000000D+00  E=-1.024233D+01

 Vector   43  Occ=0.000000D+00  E= 1.896636D-01

 Vector   44  Occ=0.000000D+00  E= 1.896640D-01

 Vector   45  Occ=0.000000D+00  E= 1.896643D-01

 Vector   46  Occ=0.000000D+00  E= 2.056941D-01

 Vector   47  Occ=0.000000D+00  E= 2.232613D-01

 Vector   48  Occ=0.000000D+00  E= 2.232617D-01

 Vector   49  Occ=0.000000D+00  E= 2.533111D-01

 Vector   50  Occ=0.000000D+00  E= 2.533112D-01

 Vector   51  Occ=0.000000D+00  E= 2.533116D-01

 Vector   52  Occ=0.000000D+00  E= 2.658031D-01

 Vector   53  Occ=0.000000D+00  E= 2.658040D-01

 Vector   54  Occ=0.000000D+00  E= 2.658045D-01

 Vector   55  Occ=0.000000D+00  E= 2.949854D-01

 Vector   56  Occ=0.000000D+00  E= 2.949860D-01

 Vector   57  Occ=0.000000D+00  E= 2.949861D-01

 Vector   58  Occ=0.000000D+00  E= 3.004952D-01

 Vector   59  Occ=0.000000D+00  E= 3.004956D-01

 Vector   60  Occ=0.000000D+00  E= 3.381801D-01

 Vector   61  Occ=0.000000D+00  E= 3.445140D-01

 Vector   62  Occ=0.000000D+00  E= 3.445146D-01

 Vector   63  Occ=0.000000D+00  E= 3.445146D-01

 Vector   64  Occ=0.000000D+00  E= 3.734248D-01

 Vector   65  Occ=0.000000D+00  E= 3.734251D-01

 Vector   66  Occ=0.000000D+00  E= 3.734267D-01

 Vector   67  Occ=0.000000D+00  E= 6.307088D-01

 Vector   68  Occ=0.000000D+00  E= 6.307104D-01

 Vector   69  Occ=0.000000D+00  E= 6.307105D-01

 Vector   70  Occ=0.000000D+00  E= 6.319004D-01

 Vector   71  Occ=0.000000D+00  E= 6.319016D-01

 Vector   72  Occ=0.000000D+00  E= 6.319020D-01

 Vector   73  Occ=0.000000D+00  E= 6.910268D-01

 Vector   74  Occ=0.000000D+00  E= 7.112067D-01

 Vector   75  Occ=0.000000D+00  E= 7.112075D-01

 Vector   76  Occ=0.000000D+00  E= 7.112076D-01

 Vector   77  Occ=0.000000D+00  E= 7.523613D-01

 Vector   78  Occ=0.000000D+00  E= 7.523619D-01

 Vector   79  Occ=0.000000D+00  E= 7.614934D-01

 Vector   80  Occ=0.000000D+00  E= 7.809329D-01

 Vector   81  Occ=0.000000D+00  E= 7.809360D-01

 Vector   82  Occ=0.000000D+00  E= 8.154824D-01

 Vector   83  Occ=0.000000D+00  E= 8.154825D-01

 Vector   84  Occ=0.000000D+00  E= 8.154829D-01

 Vector   85  Occ=0.000000D+00  E= 8.610631D-01

 Vector   86  Occ=0.000000D+00  E= 8.610634D-01

 Vector   87  Occ=0.000000D+00  E= 8.610643D-01

 Vector   88  Occ=0.000000D+00  E= 8.839480D-01

 Vector   89  Occ=0.000000D+00  E= 8.839487D-01

 Vector   90  Occ=0.000000D+00  E= 8.839496D-01

 Vector   91  Occ=0.000000D+00  E= 9.689574D-01

 Vector   92  Occ=0.000000D+00  E= 9.844002D-01

 Vector   93  Occ=0.000000D+00  E= 9.844017D-01

 Vector   94  Occ=0.000000D+00  E= 9.844034D-01

 Vector   95  Occ=0.000000D+00  E= 9.846074D-01

 Vector   96  Occ=0.000000D+00  E= 9.846077D-01

 Vector   97  Occ=0.000000D+00  E= 9.846080D-01

 Vector   98  Occ=0.000000D+00  E= 1.019643D+00

 Vector   99  Occ=0.000000D+00  E= 1.055047D+00

 Vector  100  Occ=0.000000D+00  E= 1.055049D+00

 Vector  101  Occ=0.000000D+00  E= 1.055052D+00

 Vector  102  Occ=0.000000D+00  E= 1.082834D+00

 Vector  103  Occ=0.000000D+00  E= 1.082837D+00

 Vector  104  Occ=0.000000D+00  E= 1.098062D+00

 Vector  105  Occ=0.000000D+00  E= 1.198460D+00

 Vector  106  Occ=0.000000D+00  E= 1.198463D+00

 Vector  107  Occ=0.000000D+00  E= 1.198467D+00

 Vector  108  Occ=0.000000D+00  E= 1.306421D+00

 Vector  109  Occ=0.000000D+00  E= 1.306422D+00

 Vector  110  Occ=0.000000D+00  E= 1.306423D+00

 Vector  111  Occ=0.000000D+00  E= 1.400941D+00

 Vector  112  Occ=0.000000D+00  E= 1.400944D+00

 Vector  113  Occ=0.000000D+00  E= 1.400946D+00

 Vector  114  Occ=0.000000D+00  E= 1.535944D+00

 Vector  115  Occ=0.000000D+00  E= 1.535946D+00

 Vector  116  Occ=0.000000D+00  E= 1.535949D+00

 Vector  117  Occ=0.000000D+00  E= 1.598689D+00

 Vector  118  Occ=0.000000D+00  E= 1.890989D+00

 Vector  119  Occ=0.000000D+00  E= 1.890992D+00

 Vector  120  Occ=0.000000D+00  E= 2.203492D+00

 Vector  121  Occ=0.000000D+00  E= 2.203494D+00

 Vector  122  Occ=0.000000D+00  E= 2.203495D+00

     Multipole analysis of the density
     ---------------------------------

     L   x y z        total         alpha         beta         nuclear
     -   - - -        -----         -----         ----         -------
     0   0 0 0     -0.000000    -38.000000    -38.000000     76.000000

     1   1 0 0     -0.000000     -0.000000     -0.000000      0.000000
     1   0 1 0     -0.000002     -0.000001     -0.000001     -0.000000
     1   0 0 1      0.000000      0.000000      0.000000      0.000000

     2   2 0 0    -47.080620   -188.136821   -188.136821    329.193022
     2   1 1 0      0.000000      0.000000      0.000000      0.000000
     2   1 0 1     -0.000008     -0.000004     -0.000004      0.000000
     2   0 2 0    -47.080602   -188.137191   -188.137191    329.193781
     2   0 1 1     -0.000008     -0.000004     -0.000004      0.000000

  Root   1 singlet a              0.338653512 a.u.                9.2152 eV
     Dipole Oscillator Strength                    0.0025953660
  Root   2 singlet a              0.338653668 a.u.                9.2152 eV
     Dipole Oscillator Strength                    0.0025949879
  Root   3 singlet a              0.338654557 a.u.                9.2153 eV
     Dipole Oscillator Strength                    0.0025951197
  Root   4 singlet a              0.377849820 a.u.               10.2818 eV
     Dipole Oscillator Strength                    0.0000000001
  Root   5 singlet a              0.377850681 a.u.               10.2818 eV
     Dipole Oscillator Strength                    0.0000000000
  Root   6 singlet a              0.377850994 a.u.               10.2819 eV
     Dipole Oscillator Strength                    0.0000000000
  Root   7 singlet a              0.384464332 a.u.               10.4618 eV
     Dipole Oscillator Strength                    0.0000000001
  Root   8 singlet a              0.384464608 a.u.               10.4618 eV
     Dipole Oscillator Strength                    0.0000000000
  Root   9 singlet a              0.393995850 a.u.               10.7212 eV
     Dipole Oscillator Strength                    0.0000000003
  Root  10 singlet a              0.393996350 a.u.               10.7212 eV
     Dipole Oscillator Strength                    0.0000000000
  Root  11 singlet a              0.393996820 a.u.               10.7212 eV
     Dipole Oscillator Strength                    0.0000000003
  Root  12 singlet a              0.396499505 a.u.               10.7893 eV
     Dipole Oscillator Strength                    0.0000000002
  Root  13 singlet a              0.396499830 a.u.               10.7893 eV
     Dipole Oscillator Strength                    0.0000000003
  Root  14 singlet a              0.400186889 a.u.               10.8896 eV
     Dipole Oscillator Strength                    0.0000000900
  Root  15 singlet a              0.400658702 a.u.               10.9025 eV
     Dipole Oscillator Strength                    0.0943598803
  Root  16 singlet a              0.400659213 a.u.               10.9025 eV
     Dipole Oscillator Strength                    0.0943548539
  Root  17 singlet a              0.400659826 a.u.               10.9025 eV
     Dipole Oscillator Strength                    0.0943551179
  Root  18 singlet a              0.402745148 a.u.               10.9593 eV
     Dipole Oscillator Strength                    0.2378181584
  Root  19 singlet a              0.402745455 a.u.               10.9593 eV
     Dipole Oscillator Strength                    0.2378217379
  Root  20 singlet a              0.402746234 a.u.               10.9593 eV
     Dipole Oscillator Strength                    0.2378196340
  Root  21 singlet a              0.409870696 a.u.               11.1532 eV
     Dipole Oscillator Strength                    0.0000000019
  Root  22 singlet a              0.411745630 a.u.               11.2042 eV
     Dipole Oscillator Strength                    0.0000000005
  Root  23 singlet a              0.411746107 a.u.               11.2042 eV
     Dipole Oscillator Strength                    0.0000000002
  Root  24 singlet a              0.411746257 a.u.               11.2042 eV
     Dipole Oscillator Strength                    0.0000000000
  Root  25 singlet a              0.413304471 a.u.               11.2466 eV
     Dipole Oscillator Strength                    0.0000000001
  Root  26 singlet a              0.413304766 a.u.               11.2466 eV
     Dipole Oscillator Strength                    0.0000000001
  Root  27 singlet a              0.416827065 a.u.               11.3424 eV
     Dipole Oscillator Strength                    0.1510547211
  Root  28 singlet a              0.416827230 a.u.               11.3425 eV
     Dipole Oscillator Strength                    0.1510524621
  Root  29 singlet a              0.416827979 a.u.               11.3425 eV
     Dipole Oscillator Strength                    0.1510445388
  Root  30 singlet a              0.428095834 a.u.               11.6491 eV
     Dipole Oscillator Strength                    0.0000000001
  Root  31 singlet a              0.428096059 a.u.               11.6491 eV
     Dipole Oscillator Strength                    0.0000000000
  Root  32 singlet a              0.428096569 a.u.               11.6491 eV
     Dipole Oscillator Strength                    0.0000000000
  Root  33 singlet a              0.431034330 a.u.               11.7290 eV
     Dipole Oscillator Strength                    0.0000000000
  Root  34 singlet a              0.432840430 a.u.               11.7782 eV
     Dipole Oscillator Strength                    0.0062820545
  Root  35 singlet a              0.432840778 a.u.               11.7782 eV
     Dipole Oscillator Strength                    0.0062831596
  Root  36 singlet a              0.432841151 a.u.               11.7782 eV
     Dipole Oscillator Strength                    0.0062823616
  Root  37 singlet a              0.440213835 a.u.               11.9788 eV
     Dipole Oscillator Strength                    0.0000000001
  Root  38 singlet a              0.440214220 a.u.               11.9788 eV
     Dipole Oscillator Strength                    0.0000000002
  Root  39 singlet a              0.440214413 a.u.               11.9788 eV
     Dipole Oscillator Strength                    0.0000000003
  Root  40 singlet a              0.443740181 a.u.               12.0748 eV
     Dipole Oscillator Strength                    0.0000000001
 Total times  cpu:      350.3s     wall:      350.3s
