============================== echo of input deck ==============================
echo
title "total energy of benzene, B3LYP"

start c6h6-b3lyp

geometry
 C    0.99261000     0.99261000     0.00000000
 C   -1.35593048     0.36332048     0.00000000
 C    0.36332048    -1.35593048     0.00000000
 C   -0.99261000    -0.99261000     0.00000000
 C    1.35593048    -0.36332048     0.00000000
 C   -0.36332048     1.35593048     0.00000000
 H    1.75792000     1.75792000     0.00000000
 H   -2.40136338     0.64344338     0.00000000
 H    0.64344338    -2.40136338     0.00000000
 H   -1.75792000    -1.75792000     0.00000000
 H    2.40136338    -0.64344338     0.00000000
 H   -0.64344338     2.40136338     0.00000000
end

scf
  singlet
  rhf
  vectors  output c6h6.movecs
end

basis
* library 6-31G
end

task scf energy

dplot
  TITLE HOMO
  vectors c6h6.movecs
   LimitXYZ
 -5.0 5.0 30
 -5.0 5.0 30
 -5.0 5.0 30
  spin total
  orbitals view
  1
  21
  gaussian
  output homo.cube
end
task dplot

dplot
  TITLE LUMO
  vectors c6h6.movecs
   LimitXYZ
 -5.0 5.0 30
 -5.0 5.0 30
 -5.0 5.0 30
  spin total
  orbitals view
  1
  22
  gaussian
  output lumo.cube
end
task dplot

================================================================================

 Output coordinates in angstroms (scale by  1.889725989 to convert to a.u.)

  No.       Tag          Charge          X              Y              Z
 ---- ---------------- ---------- -------------- -------------- --------------
    1 C                    6.0000     0.99261000     0.99261000     0.00000000
    2 C                    6.0000    -1.35593048     0.36332048     0.00000000
    3 C                    6.0000     0.36332048    -1.35593048     0.00000000
    4 C                    6.0000    -0.99261000    -0.99261000     0.00000000
    5 C                    6.0000     1.35593048    -0.36332048     0.00000000
    6 C                    6.0000    -0.36332048     1.35593048     0.00000000
    7 H                    1.0000     1.75792000     1.75792000     0.00000000
    8 H                    1.0000    -2.40136338     0.64344338     0.00000000
    9 H                    1.0000     0.64344338    -2.40136338     0.00000000
   10 H                    1.0000    -1.75792000    -1.75792000     0.00000000
   11 H                    1.0000     2.40136338    -0.64344338     0.00000000
   12 H                    1.0000    -0.64344338     2.40136338     0.00000000

         Total SCF energy =   -230.622644896370

 Vector    7  Occ=2.000000D+00  E=-1.145744D+00  Symmetry=a1g

 Vector    8  Occ=2.000000D+00  E=-1.011100D+00  Symmetry=e1u

 Vector    9  Occ=2.000000D+00  E=-1.011100D+00  Symmetry=e1u

 Vector   10  Occ=2.000000D+00  E=-8.200731D-01  Symmetry=e2g

 Vector   11  Occ=2.000000D+00  E=-8.200731D-01  Symmetry=e2g

 Vector   12  Occ=2.000000D+00  E=-7.067100D-01  Symmetry=a1g

 Vector   13  Occ=2.000000D+00  E=-6.407849D-01  Symmetry=b1u

 Vector   14  Occ=2.000000D+00  E=-6.125219D-01  Symmetry=b2u

 Vector   15  Occ=2.000000D+00  E=-5.847770D-01  Symmetry=e1u

 Vector   16  Occ=2.000000D+00  E=-5.847770D-01  Symmetry=e1u

 Vector   17  Occ=2.000000D+00  E=-4.950240D-01  Symmetry=a2u

 Vector   18  Occ=2.000000D+00  E=-4.872999D-01  Symmetry=e2g

 Vector   19  Occ=2.000000D+00  E=-4.872999D-01  Symmetry=e2g

 Vector   20  Occ=2.000000D+00  E=-3.313773D-01  Symmetry=e1g

 Vector   21  Occ=2.000000D+00  E=-3.313773D-01  Symmetry=e1g

 Vector   22  Occ=0.000000D+00  E= 1.439407D-01  Symmetry=e2u

 Vector   23  Occ=0.000000D+00  E= 1.439407D-01  Symmetry=e2u

 Vector   24  Occ=0.000000D+00  E= 2.339463D-01  Symmetry=a1g

 Vector   25  Occ=0.000000D+00  E= 2.903820D-01  Symmetry=e1u

 Vector   26  Occ=0.000000D+00  E= 2.903820D-01  Symmetry=e1u

 Vector   27  Occ=0.000000D+00  E= 3.285185D-01  Symmetry=e2g

 Vector   28  Occ=0.000000D+00  E= 3.285185D-01  Symmetry=e2g

 Vector   29  Occ=0.000000D+00  E= 3.341848D-01  Symmetry=b1u

 Vector   30  Occ=0.000000D+00  E= 3.569572D-01  Symmetry=b2g

 Vector   31  Occ=0.000000D+00  E= 4.673295D-01  Symmetry=e2g

 Vector   32  Occ=0.000000D+00  E= 4.673295D-01  Symmetry=e2g

 Vector   33  Occ=0.000000D+00  E= 4.917038D-01  Symmetry=e1u

 Vector   34  Occ=0.000000D+00  E= 4.917038D-01  Symmetry=e1u

 Vector   35  Occ=0.000000D+00  E= 6.857679D-01  Symmetry=b2u

       Multipole analysis of the density wrt the origin
       ------------------------------------------------

     L   x y z        total         open         nuclear
     -   - - -        -----         ----         -------
     0   0 0 0     -0.000000      0.000000     42.000000

     1   1 0 0      0.000000      0.000000      0.000000
     1   0 1 0     -0.000000      0.000000      0.000000
     1   0 0 1     -0.000000      0.000000      0.000000

     2   2 0 0    -23.533107      0.000000    192.878835
     2   1 1 0     -0.000000      0.000000      0.000000
     2   1 0 1     -0.000000      0.000000      0.000000
     2   0 2 0    -23.533107      0.000000    192.878835
     2   0 1 1     -0.000000      0.000000      0.000000

 Total times  cpu:        2.3s     wall:        2.3s
